   6   6   0   0
  0.1040388E+02  0.4593730E-09  0.4593730E-09  0.2958120E-09  0.1500000E-14
   300.000000000000     
  CAR 
 empty                                   
      7.20864644    -18.73979352  301      3.51158502      1.00000000
    -18.740  0.0000E+00  0.0000E+00
    -18.653  0.0000E+00  0.0000E+00
    -18.567  0.0000E+00  0.0000E+00
    -18.480  0.0000E+00  0.0000E+00
    -18.394  0.0000E+00  0.0000E+00
    -18.307  0.0000E+00  0.0000E+00
    -18.221  0.0000E+00  0.0000E+00
    -18.134  0.0000E+00  0.0000E+00
    -18.048  0.0000E+00  0.0000E+00
    -17.961  0.0000E+00  0.0000E+00
    -17.875  0.2339E-14  0.1998E-15
    -17.788  0.2909E-12  0.2500E-13
    -17.702  0.2420E-10  0.2089E-11
    -17.615  0.1408E-08  0.1221E-09
    -17.529  0.5725E-07  0.5002E-08
    -17.442  0.1630E-05  0.1439E-06
    -17.356  0.3257E-04  0.2916E-05
    -17.269  0.4578E-03  0.4182E-04
    -17.183  0.4546E-02  0.4274E-03
    -17.096  0.3205E-01  0.3139E-02
    -17.010  0.1616E+00  0.1676E-01
    -16.923  0.5878E+00  0.6611E-01
    -16.837  0.1561E+01  0.1965E+00
    -16.750  0.3068E+01  0.4510E+00
    -16.664  0.4524E+01  0.8237E+00
    -16.577  0.5071E+01  0.1238E+01
    -16.491  0.4353E+01  0.1592E+01
    -16.404  0.2868E+01  0.1823E+01
    -16.318  0.1446E+01  0.1939E+01
    -16.231  0.5546E+00  0.1984E+01
    -16.145  0.1609E+00  0.1997E+01
    -16.058  0.3711E-01  0.2000E+01
    -15.972  0.2188E-01  0.2002E+01
    -15.885  0.8855E-01  0.2009E+01
    -15.799  0.3393E+00  0.2038E+01
    -15.712  0.9401E+00  0.2117E+01
    -15.626  0.1900E+01  0.2278E+01
    -15.539  0.2882E+01  0.2519E+01
    -15.453  0.3453E+01  0.2806E+01
    -15.366  0.3529E+01  0.3096E+01
    -15.280  0.3325E+01  0.3365E+01
    -15.194  0.2935E+01  0.3600E+01
    -15.107  0.2305E+01  0.3784E+01
    -15.021  0.1512E+01  0.3904E+01
    -14.934  0.8242E+00  0.3970E+01
    -14.848  0.5104E+00  0.4010E+01
    -14.761  0.7598E+00  0.4070E+01
    -14.675  0.1702E+01  0.4205E+01
    -14.588  0.3228E+01  0.4462E+01
    -14.502  0.4770E+01  0.4842E+01
    -14.415  0.5586E+01  0.5288E+01
    -14.329  0.5410E+01  0.5722E+01
    -14.242  0.4628E+01  0.6096E+01
    -14.156  0.3789E+01  0.6405E+01
    -14.069  0.3182E+01  0.6668E+01
    -13.983  0.2833E+01  0.6904E+01
    -13.896  0.2666E+01  0.7128E+01
    -13.810  0.2573E+01  0.7346E+01
    -13.723  0.2416E+01  0.7553E+01
    -13.637  0.2071E+01  0.7730E+01
    -13.550  0.1529E+01  0.7862E+01
    -13.464  0.9305E+00  0.7942E+01
    -13.377  0.4488E+00  0.7981E+01
    -13.291  0.1654E+00  0.7995E+01
    -13.204  0.4515E-01  0.7999E+01
    -13.118  0.8908E-02  0.8000E+01
    -13.031  0.1250E-02  0.8000E+01
    -12.945  0.1235E-03  0.8000E+01
    -12.858  0.8532E-05  0.8000E+01
    -12.772  0.4106E-06  0.8000E+01
    -12.685  0.1373E-07  0.8000E+01
    -12.599  0.3184E-09  0.8000E+01
    -12.512  0.5116E-11  0.8000E+01
    -12.426  0.5673E-13  0.8000E+01
    -12.339  0.5134E-15  0.8000E+01
    -12.253  0.0000E+00  0.8000E+01
    -12.166  0.0000E+00  0.8000E+01
    -12.080  0.0000E+00  0.8000E+01
    -11.993  0.0000E+00  0.8000E+01
    -11.907  0.0000E+00  0.8000E+01
    -11.820  0.0000E+00  0.8000E+01
    -11.734  0.0000E+00  0.8000E+01
    -11.647  0.0000E+00  0.8000E+01
    -11.561  0.0000E+00  0.8000E+01
    -11.474  0.0000E+00  0.8000E+01
    -11.388  0.0000E+00  0.8000E+01
    -11.301  0.0000E+00  0.8000E+01
    -11.215  0.0000E+00  0.8000E+01
    -11.128  0.0000E+00  0.8000E+01
    -11.042  0.0000E+00  0.8000E+01
    -10.955  0.0000E+00  0.8000E+01
    -10.869  0.0000E+00  0.8000E+01
    -10.782  0.0000E+00  0.8000E+01
    -10.696  0.0000E+00  0.8000E+01
    -10.609  0.0000E+00  0.8000E+01
    -10.523  0.0000E+00  0.8000E+01
    -10.436  0.0000E+00  0.8000E+01
    -10.350  0.0000E+00  0.8000E+01
    -10.263  0.0000E+00  0.8000E+01
    -10.177  0.0000E+00  0.8000E+01
    -10.090  0.0000E+00  0.8000E+01
    -10.004  0.0000E+00  0.8000E+01
     -9.917  0.0000E+00  0.8000E+01
     -9.831  0.0000E+00  0.8000E+01
     -9.744  0.0000E+00  0.8000E+01
     -9.658  0.0000E+00  0.8000E+01
     -9.571  0.0000E+00  0.8000E+01
     -9.485  0.0000E+00  0.8000E+01
     -9.398  0.0000E+00  0.8000E+01
     -9.312  0.0000E+00  0.8000E+01
     -9.225  0.0000E+00  0.8000E+01
     -9.139  0.0000E+00  0.8000E+01
     -9.052  0.0000E+00  0.8000E+01
     -8.966  0.0000E+00  0.8000E+01
     -8.879  0.0000E+00  0.8000E+01
     -8.793  0.0000E+00  0.8000E+01
     -8.706  0.0000E+00  0.8000E+01
     -8.620  0.0000E+00  0.8000E+01
     -8.533  0.0000E+00  0.8000E+01
     -8.447  0.0000E+00  0.8000E+01
     -8.360  0.0000E+00  0.8000E+01
     -8.274  0.0000E+00  0.8000E+01
     -8.187  0.0000E+00  0.8000E+01
     -8.101  0.0000E+00  0.8000E+01
     -8.014  0.0000E+00  0.8000E+01
     -7.928  0.0000E+00  0.8000E+01
     -7.841  0.0000E+00  0.8000E+01
     -7.755  0.0000E+00  0.8000E+01
     -7.668  0.0000E+00  0.8000E+01
     -7.582  0.0000E+00  0.8000E+01
     -7.495  0.0000E+00  0.8000E+01
     -7.409  0.0000E+00  0.8000E+01
     -7.322  0.0000E+00  0.8000E+01
     -7.236  0.0000E+00  0.8000E+01
     -7.149  0.0000E+00  0.8000E+01
     -7.063  0.0000E+00  0.8000E+01
     -6.977  0.0000E+00  0.8000E+01
     -6.890  0.0000E+00  0.8000E+01
     -6.804  0.0000E+00  0.8000E+01
     -6.717  0.0000E+00  0.8000E+01
     -6.631  0.0000E+00  0.8000E+01
     -6.544  0.0000E+00  0.8000E+01
     -6.458  0.0000E+00  0.8000E+01
     -6.371  0.0000E+00  0.8000E+01
     -6.285  0.0000E+00  0.8000E+01
     -6.198  0.0000E+00  0.8000E+01
     -6.112  0.0000E+00  0.8000E+01
     -6.025  0.0000E+00  0.8000E+01
     -5.939  0.0000E+00  0.8000E+01
     -5.852  0.0000E+00  0.8000E+01
     -5.766  0.0000E+00  0.8000E+01
     -5.679  0.0000E+00  0.8000E+01
     -5.593  0.0000E+00  0.8000E+01
     -5.506  0.0000E+00  0.8000E+01
     -5.420  0.0000E+00  0.8000E+01
     -5.333  0.3722E-14  0.8000E+01
     -5.247  0.4123E-12  0.8000E+01
     -5.160  0.3165E-10  0.8000E+01
     -5.074  0.1682E-08  0.8000E+01
     -4.987  0.6191E-07  0.8000E+01
     -4.901  0.1580E-05  0.8000E+01
     -4.814  0.2803E-04  0.8000E+01
     -4.728  0.3459E-03  0.8000E+01
     -4.641  0.2981E-02  0.8000E+01
     -4.555  0.1801E-01  0.8002E+01
     -4.468  0.7689E-01  0.8008E+01
     -4.382  0.2345E+00  0.8029E+01
     -4.295  0.5201E+00  0.8074E+01
     -4.209  0.8636E+00  0.8148E+01
     -4.122  0.1123E+01  0.8244E+01
     -4.036  0.1228E+01  0.8349E+01
     -3.949  0.1251E+01  0.8455E+01
     -3.863  0.1338E+01  0.8568E+01
     -3.776  0.1602E+01  0.8703E+01
     -3.690  0.2034E+01  0.8875E+01
     -3.603  0.2485E+01  0.9084E+01
     -3.517  0.2811E+01  0.9319E+01
     -3.430  0.3029E+01  0.9570E+01
     -3.344  0.3288E+01  0.9841E+01
     -3.257  0.3689E+01  0.1014E+02
     -3.171  0.4153E+01  0.1048E+02
     -3.084  0.4450E+01  0.1084E+02
     -2.998  0.4423E+01  0.1120E+02
     -2.911  0.4152E+01  0.1154E+02
     -2.825  0.3877E+01  0.1185E+02
     -2.738  0.3823E+01  0.1217E+02
     -2.652  0.4161E+01  0.1251E+02
     -2.565  0.4962E+01  0.1292E+02
     -2.479  0.5982E+01  0.1341E+02
     -2.392  0.6628E+01  0.1396E+02
     -2.306  0.6403E+01  0.1449E+02
     -2.219  0.5366E+01  0.1493E+02
     -2.133  0.4025E+01  0.1526E+02
     -2.046  0.2876E+01  0.1549E+02
     -1.960  0.2122E+01  0.1566E+02
     -1.873  0.1748E+01  0.1581E+02
     -1.787  0.1647E+01  0.1594E+02
     -1.700  0.1667E+01  0.1608E+02
     -1.614  0.1722E+01  0.1622E+02
     -1.527  0.1867E+01  0.1637E+02
     -1.441  0.2167E+01  0.1654E+02
     -1.354  0.2546E+01  0.1675E+02
     -1.268  0.2854E+01  0.1697E+02
     -1.181  0.3010E+01  0.1721E+02
     -1.095  0.2997E+01  0.1745E+02
     -1.008  0.2772E+01  0.1767E+02
     -0.922  0.2335E+01  0.1786E+02
     -0.835  0.1831E+01  0.1801E+02
     -0.749  0.1447E+01  0.1813E+02
     -0.662  0.1232E+01  0.1823E+02
     -0.576  0.1149E+01  0.1833E+02
     -0.489  0.1197E+01  0.1843E+02
     -0.403  0.1417E+01  0.1855E+02
     -0.316  0.1787E+01  0.1870E+02
     -0.230  0.2174E+01  0.1889E+02
     -0.143  0.2441E+01  0.1909E+02
     -0.057  0.2557E+01  0.1931E+02
      0.030  0.2597E+01  0.1952E+02
      0.116  0.2657E+01  0.1974E+02
      0.203  0.2829E+01  0.1997E+02
      0.289  0.3207E+01  0.2023E+02
      0.376  0.3822E+01  0.2054E+02
      0.462  0.4568E+01  0.2091E+02
      0.549  0.5215E+01  0.2133E+02
      0.635  0.5476E+01  0.2177E+02
      0.722  0.5156E+01  0.2219E+02
      0.808  0.4376E+01  0.2255E+02
      0.895  0.3568E+01  0.2284E+02
      0.981  0.3097E+01  0.2309E+02
      1.068  0.2940E+01  0.2333E+02
      1.154  0.2786E+01  0.2355E+02
      1.241  0.2378E+01  0.2374E+02
      1.327  0.1770E+01  0.2388E+02
      1.413  0.1289E+01  0.2399E+02
      1.500  0.1256E+01  0.2409E+02
      1.586  0.1673E+01  0.2424E+02
      1.673  0.2218E+01  0.2443E+02
      1.759  0.2562E+01  0.2465E+02
      1.846  0.2657E+01  0.2487E+02
      1.932  0.2680E+01  0.2510E+02
      2.019  0.2815E+01  0.2533E+02
      2.105  0.3099E+01  0.2559E+02
      2.192  0.3415E+01  0.2588E+02
      2.278  0.3663E+01  0.2619E+02
      2.365  0.3902E+01  0.2651E+02
      2.451  0.4325E+01  0.2686E+02
      2.538  0.5077E+01  0.2728E+02
      2.624  0.6013E+01  0.2777E+02
      2.711  0.6718E+01  0.2832E+02
      2.797  0.6914E+01  0.2889E+02
      2.884  0.6703E+01  0.2943E+02
      2.970  0.6342E+01  0.2994E+02
      3.057  0.5950E+01  0.3042E+02
      3.143  0.5430E+01  0.3085E+02
      3.230  0.4620E+01  0.3122E+02
      3.316  0.3563E+01  0.3150E+02
      3.403  0.2526E+01  0.3170E+02
      3.489  0.1702E+01  0.3183E+02
      3.576  0.1081E+01  0.3192E+02
      3.662  0.6057E+00  0.3197E+02
      3.749  0.2783E+00  0.3199E+02
      3.835  0.1003E+00  0.3200E+02
      3.922  0.3049E-01  0.3200E+02
      4.008  0.2739E-01  0.3200E+02
      4.095  0.1136E+00  0.3201E+02
      4.181  0.4290E+00  0.3205E+02
      4.268  0.1214E+01  0.3215E+02
      4.354  0.2614E+01  0.3236E+02
      4.441  0.4443E+01  0.3273E+02
      4.527  0.6275E+01  0.3324E+02
      4.614  0.7853E+01  0.3389E+02
      4.700  0.9244E+01  0.3465E+02
      4.787  0.1050E+02  0.3552E+02
      4.873  0.1138E+02  0.3645E+02
      4.960  0.1152E+02  0.3738E+02
      5.046  0.1067E+02  0.3825E+02
      5.133  0.8832E+01  0.3896E+02
      5.219  0.6311E+01  0.3948E+02
      5.306  0.3732E+01  0.3978E+02
      5.392  0.1751E+01  0.3993E+02
      5.479  0.6293E+00  0.3998E+02
      5.565  0.1684E+00  0.4000E+02
      5.652  0.3289E-01  0.4000E+02
      5.738  0.4624E-02  0.4000E+02
      5.825  0.4632E-03  0.4000E+02
      5.911  0.3284E-04  0.4000E+02
      5.998  0.1641E-05  0.4000E+02
      6.084  0.5754E-07  0.4000E+02
      6.171  0.1414E-08  0.4000E+02
      6.257  0.2430E-10  0.4000E+02
      6.344  0.2925E-12  0.4000E+02
      6.430  0.1811E-14  0.4000E+02
      6.517  0.0000E+00  0.4000E+02
      6.603  0.0000E+00  0.4000E+02
      6.690  0.0000E+00  0.4000E+02
      6.776  0.0000E+00  0.4000E+02
      6.863  0.0000E+00  0.4000E+02
      6.949  0.0000E+00  0.4000E+02
      7.036  0.0000E+00  0.4000E+02
      7.122  0.0000E+00  0.4000E+02
      7.209  0.0000E+00  0.4000E+02
      7.33680838    -18.87012133  301      3.56994612      1.00000000
    -18.870  0.0000E+00  0.0000E+00
    -18.783  0.0000E+00  0.0000E+00
    -18.695  0.0000E+00  0.0000E+00
    -18.608  0.0000E+00  0.0000E+00
    -18.521  0.0000E+00  0.0000E+00
    -18.433  0.0000E+00  0.0000E+00
    -18.346  0.0000E+00  0.0000E+00
    -18.259  0.0000E+00  0.0000E+00
    -18.171  0.0000E+00  0.0000E+00
    -18.084  0.0000E+00  0.0000E+00
    -17.997  0.1906E-14  0.1665E-15
    -17.909  0.2294E-12  0.2021E-13
    -17.822  0.1923E-10  0.1700E-11
    -17.734  0.1107E-08  0.9839E-10
    -17.647  0.4378E-07  0.3923E-08
    -17.560  0.1191E-05  0.1079E-06
    -17.472  0.2228E-04  0.2055E-05
    -17.385  0.2872E-03  0.2714E-04
    -17.298  0.2550E-02  0.2499E-03
    -17.210  0.1561E-01  0.1614E-02
    -17.123  0.6597E-01  0.7376E-02
    -17.036  0.1924E+00  0.2419E-01
    -16.948  0.3877E+00  0.5805E-01
    -16.861  0.5396E+00  0.1052E+00
    -16.774  0.5190E+00  0.1505E+00
    -16.686  0.3449E+00  0.1807E+00
    -16.599  0.1584E+00  0.1945E+00
    -16.511  0.5022E-01  0.1989E+00
    -16.424  0.1100E-01  0.1998E+00
    -16.337  0.1674E-02  0.2000E+00
    -16.249  0.3604E-03  0.2000E+00
    -16.162  0.1791E-02  0.2002E+00
    -16.075  0.1163E-01  0.2012E+00
    -15.987  0.5249E-01  0.2058E+00
    -15.900  0.1635E+00  0.2201E+00
    -15.813  0.3517E+00  0.2508E+00
    -15.725  0.5228E+00  0.2965E+00
    -15.638  0.5369E+00  0.3434E+00
    -15.551  0.3810E+00  0.3766E+00
    -15.463  0.1868E+00  0.3929E+00
    -15.376  0.6325E-01  0.3985E+00
    -15.289  0.1479E-01  0.3998E+00
    -15.201  0.2385E-02  0.4000E+00
    -15.114  0.2653E-03  0.4000E+00
    -15.026  0.2034E-04  0.4000E+00
    -14.939  0.1073E-05  0.4000E+00
    -14.852  0.3897E-07  0.4000E+00
    -14.764  0.9732E-09  0.4000E+00
    -14.677  0.2939E-10  0.4000E+00
    -14.590  0.7583E-09  0.4000E+00
    -14.502  0.3111E-07  0.4000E+00
    -14.415  0.8782E-06  0.4000E+00
    -14.328  0.1707E-04  0.4000E+00
    -14.240  0.2287E-03  0.4000E+00
    -14.153  0.2117E-02  0.4002E+00
    -14.066  0.1359E-01  0.4014E+00
    -13.978  0.6083E-01  0.4067E+00
    -13.891  0.1919E+00  0.4235E+00
    -13.803  0.4343E+00  0.4614E+00
    -13.716  0.7240E+00  0.5247E+00
    -13.629  0.9179E+00  0.6048E+00
    -13.541  0.9047E+00  0.6839E+00
    -13.454  0.6923E+00  0.7443E+00
    -13.367  0.4013E+00  0.7794E+00
    -13.279  0.1708E+00  0.7943E+00
    -13.192  0.5202E-01  0.7989E+00
    -13.105  0.1115E-01  0.7998E+00
    -13.017  0.1665E-02  0.8000E+00
    -12.930  0.1723E-03  0.8000E+00
    -12.843  0.1231E-04  0.8000E+00
    -12.755  0.6066E-06  0.8000E+00
    -12.668  0.2057E-07  0.8000E+00
    -12.580  0.4799E-09  0.8000E+00
    -12.493  0.7693E-11  0.8000E+00
    -12.406  0.8490E-13  0.8000E+00
    -12.318  0.5084E-15  0.8000E+00
    -12.231  0.0000E+00  0.8000E+00
    -12.144  0.0000E+00  0.8000E+00
    -12.056  0.0000E+00  0.8000E+00
    -11.969  0.0000E+00  0.8000E+00
    -11.882  0.0000E+00  0.8000E+00
    -11.794  0.0000E+00  0.8000E+00
    -11.707  0.0000E+00  0.8000E+00
    -11.620  0.0000E+00  0.8000E+00
    -11.532  0.0000E+00  0.8000E+00
    -11.445  0.0000E+00  0.8000E+00
    -11.357  0.0000E+00  0.8000E+00
    -11.270  0.0000E+00  0.8000E+00
    -11.183  0.0000E+00  0.8000E+00
    -11.095  0.0000E+00  0.8000E+00
    -11.008  0.0000E+00  0.8000E+00
    -10.921  0.0000E+00  0.8000E+00
    -10.833  0.0000E+00  0.8000E+00
    -10.746  0.0000E+00  0.8000E+00
    -10.659  0.0000E+00  0.8000E+00
    -10.571  0.0000E+00  0.8000E+00
    -10.484  0.0000E+00  0.8000E+00
    -10.397  0.0000E+00  0.8000E+00
    -10.309  0.0000E+00  0.8000E+00
    -10.222  0.0000E+00  0.8000E+00
    -10.134  0.0000E+00  0.8000E+00
    -10.047  0.0000E+00  0.8000E+00
     -9.960  0.0000E+00  0.8000E+00
     -9.872  0.0000E+00  0.8000E+00
     -9.785  0.0000E+00  0.8000E+00
     -9.698  0.0000E+00  0.8000E+00
     -9.610  0.0000E+00  0.8000E+00
     -9.523  0.0000E+00  0.8000E+00
     -9.436  0.0000E+00  0.8000E+00
     -9.348  0.0000E+00  0.8000E+00
     -9.261  0.0000E+00  0.8000E+00
     -9.174  0.0000E+00  0.8000E+00
     -9.086  0.0000E+00  0.8000E+00
     -8.999  0.0000E+00  0.8000E+00
     -8.911  0.0000E+00  0.8000E+00
     -8.824  0.0000E+00  0.8000E+00
     -8.737  0.0000E+00  0.8000E+00
     -8.649  0.0000E+00  0.8000E+00
     -8.562  0.0000E+00  0.8000E+00
     -8.475  0.0000E+00  0.8000E+00
     -8.387  0.0000E+00  0.8000E+00
     -8.300  0.0000E+00  0.8000E+00
     -8.213  0.0000E+00  0.8000E+00
     -8.125  0.0000E+00  0.8000E+00
     -8.038  0.0000E+00  0.8000E+00
     -7.951  0.0000E+00  0.8000E+00
     -7.863  0.0000E+00  0.8000E+00
     -7.776  0.0000E+00  0.8000E+00
     -7.688  0.0000E+00  0.8000E+00
     -7.601  0.0000E+00  0.8000E+00
     -7.514  0.0000E+00  0.8000E+00
     -7.426  0.0000E+00  0.8000E+00
     -7.339  0.0000E+00  0.8000E+00
     -7.252  0.0000E+00  0.8000E+00
     -7.164  0.0000E+00  0.8000E+00
     -7.077  0.0000E+00  0.8000E+00
     -6.990  0.0000E+00  0.8000E+00
     -6.902  0.0000E+00  0.8000E+00
     -6.815  0.0000E+00  0.8000E+00
     -6.728  0.0000E+00  0.8000E+00
     -6.640  0.0000E+00  0.8000E+00
     -6.553  0.0000E+00  0.8000E+00
     -6.466  0.0000E+00  0.8000E+00
     -6.378  0.0000E+00  0.8000E+00
     -6.291  0.0000E+00  0.8000E+00
     -6.203  0.0000E+00  0.8000E+00
     -6.116  0.0000E+00  0.8000E+00
     -6.029  0.0000E+00  0.8000E+00
     -5.941  0.0000E+00  0.8000E+00
     -5.854  0.0000E+00  0.8000E+00
     -5.767  0.0000E+00  0.8000E+00
     -5.679  0.0000E+00  0.8000E+00
     -5.592  0.0000E+00  0.8000E+00
     -5.505  0.0000E+00  0.8000E+00
     -5.417  0.1906E-14  0.8000E+00
     -5.330  0.2322E-12  0.8000E+00
     -5.243  0.1945E-10  0.8000E+00
     -5.155  0.1118E-08  0.8000E+00
     -5.068  0.4418E-07  0.8000E+00
     -4.980  0.1200E-05  0.8000E+00
     -4.893  0.2244E-04  0.8000E+00
     -4.806  0.2889E-03  0.8000E+00
     -4.718  0.2563E-02  0.8003E+00
     -4.631  0.1568E-01  0.8016E+00
     -4.544  0.6618E-01  0.8074E+00
     -4.456  0.1929E+00  0.8243E+00
     -4.369  0.3882E+00  0.8582E+00
     -4.282  0.5399E+00  0.9053E+00
     -4.194  0.5201E+00  0.9508E+00
     -4.107  0.3538E+00  0.9817E+00
     -4.020  0.2024E+00  0.9993E+00
     -3.932  0.1949E+00  0.1016E+01
     -3.845  0.3373E+00  0.1046E+01
     -3.757  0.5095E+00  0.1090E+01
     -3.670  0.5465E+00  0.1138E+01
     -3.583  0.4089E+00  0.1174E+01
     -3.495  0.2273E+00  0.1194E+01
     -3.408  0.1508E+00  0.1207E+01
     -3.321  0.2324E+00  0.1227E+01
     -3.233  0.4153E+00  0.1263E+01
     -3.146  0.5483E+00  0.1311E+01
     -3.059  0.5040E+00  0.1355E+01
     -2.971  0.3254E+00  0.1384E+01
     -2.884  0.1750E+00  0.1399E+01
     -2.797  0.1830E+00  0.1415E+01
     -2.709  0.4037E+00  0.1450E+01
     -2.622  0.7761E+00  0.1518E+01
     -2.534  0.1064E+01  0.1611E+01
     -2.447  0.1021E+01  0.1700E+01
     -2.360  0.6859E+00  0.1760E+01
     -2.272  0.3222E+00  0.1788E+01
     -2.185  0.1057E+00  0.1798E+01
     -2.098  0.2422E-01  0.1800E+01
     -2.010  0.3863E-02  0.1800E+01
     -1.923  0.4287E-03  0.1800E+01
     -1.836  0.3304E-04  0.1800E+01
     -1.748  0.1765E-05  0.1800E+01
     -1.661  0.9143E-07  0.1800E+01
     -1.574  0.7547E-06  0.1800E+01
     -1.486  0.1488E-04  0.1800E+01
     -1.399  0.2025E-03  0.1800E+01
     -1.311  0.1898E-02  0.1800E+01
     -1.224  0.1227E-01  0.1801E+01
     -1.137  0.5472E-01  0.1806E+01
     -1.049  0.1685E+00  0.1821E+01
     -0.962  0.3582E+00  0.1852E+01
     -0.875  0.5264E+00  0.1898E+01
     -0.787  0.5363E+00  0.1945E+01
     -0.700  0.3884E+00  0.1979E+01
     -0.613  0.2413E+00  0.2000E+01
     -0.525  0.2403E+00  0.2021E+01
     -0.438  0.3861E+00  0.2055E+01
     -0.351  0.5352E+00  0.2101E+01
     -0.263  0.5277E+00  0.2147E+01
     -0.176  0.3607E+00  0.2179E+01
     -0.088  0.1704E+00  0.2194E+01
     -0.001  0.5562E-01  0.2199E+01
      0.086  0.1260E-01  0.2200E+01
      0.174  0.2744E-02  0.2200E+01
      0.261  0.6199E-02  0.2201E+01
      0.348  0.3110E-01  0.2203E+01
      0.436  0.1113E+00  0.2213E+01
      0.523  0.2753E+00  0.2237E+01
      0.610  0.4703E+00  0.2278E+01
      0.698  0.5551E+00  0.2327E+01
      0.785  0.4528E+00  0.2366E+01
      0.872  0.2552E+00  0.2388E+01
      0.960  0.9942E-01  0.2397E+01
      1.047  0.2761E-01  0.2400E+01
      1.135  0.1209E-01  0.2401E+01
      1.222  0.3991E-01  0.2404E+01
      1.309  0.1514E+00  0.2417E+01
      1.397  0.4100E+00  0.2453E+01
      1.484  0.7825E+00  0.2522E+01
      1.571  0.1054E+01  0.2614E+01
      1.659  0.1007E+01  0.2702E+01
      1.746  0.6946E+00  0.2762E+01
      1.833  0.4004E+00  0.2797E+01
      1.921  0.3279E+00  0.2826E+01
      2.008  0.4445E+00  0.2865E+01
      2.095  0.5540E+00  0.2913E+01
      2.183  0.4991E+00  0.2957E+01
      2.270  0.3162E+00  0.2984E+01
      2.357  0.1592E+00  0.2998E+01
      2.445  0.1330E+00  0.3010E+01
      2.532  0.2520E+00  0.3032E+01
      2.620  0.4432E+00  0.3071E+01
      2.707  0.5542E+00  0.3119E+01
      2.794  0.4799E+00  0.3161E+01
      2.882  0.2872E+00  0.3186E+01
      2.969  0.1188E+00  0.3196E+01
      3.056  0.3390E-01  0.3199E+01
      3.144  0.6681E-02  0.3200E+01
      3.231  0.9081E-03  0.3200E+01
      3.318  0.8509E-04  0.3200E+01
      3.406  0.5492E-05  0.3200E+01
      3.493  0.2440E-06  0.3200E+01
      3.580  0.7723E-08  0.3200E+01
      3.668  0.1227E-07  0.3200E+01
      3.755  0.3771E-06  0.3200E+01
      3.843  0.8077E-05  0.3200E+01
      3.930  0.1191E-03  0.3200E+01
      4.017  0.1210E-02  0.3200E+01
      4.105  0.8470E-02  0.3201E+01
      4.192  0.4092E-01  0.3204E+01
      4.279  0.1364E+00  0.3216E+01
      4.367  0.3142E+00  0.3244E+01
      4.454  0.5010E+00  0.3288E+01
      4.541  0.5592E+00  0.3336E+01
      4.629  0.4698E+00  0.3377E+01
      4.716  0.4126E+00  0.3413E+01
      4.803  0.5755E+00  0.3464E+01
      4.891  0.9056E+00  0.3543E+01
      4.978  0.1112E+01  0.3640E+01
      5.066  0.9990E+00  0.3727E+01
      5.153  0.7292E+00  0.3791E+01
      5.240  0.5840E+00  0.3842E+01
      5.328  0.5887E+00  0.3893E+01
      5.415  0.5537E+00  0.3942E+01
      5.502  0.3896E+00  0.3976E+01
      5.590  0.1926E+00  0.3993E+01
      5.677  0.6598E-01  0.3998E+01
      5.764  0.1561E-01  0.4000E+01
      5.852  0.2550E-02  0.4000E+01
      5.939  0.2872E-03  0.4000E+01
      6.026  0.2228E-04  0.4000E+01
      6.114  0.1191E-05  0.4000E+01
      6.201  0.4378E-07  0.4000E+01
      6.289  0.1107E-08  0.4000E+01
      6.376  0.1923E-10  0.4000E+01
      6.463  0.2293E-12  0.4000E+01
      6.551  0.2033E-14  0.4000E+01
      6.638  0.0000E+00  0.4000E+01
      6.725  0.0000E+00  0.4000E+01
      6.813  0.0000E+00  0.4000E+01
      6.900  0.0000E+00  0.4000E+01
      6.987  0.0000E+00  0.4000E+01
      7.075  0.0000E+00  0.4000E+01
      7.162  0.0000E+00  0.4000E+01
      7.249  0.0000E+00  0.4000E+01
      7.337  0.0000E+00  0.4000E+01
