    6    6   10    1
  0.1040388E+02  0.4593730E-09  0.4593730E-09  0.2958120E-09  0.1500000E-14
   300.000000000000     
  CAR 
 empty                                   
     32      1     20
 
  0.0000000E+00  0.0000000E+00  0.0000000E+00  0.1000000E+01
    1      -16.870121   1.000000
    2      -15.718999   1.000000
    3      -13.716770   1.000000
    4      -13.550882   1.000000
    5       -4.291024   1.000000
    6       -3.740320   1.000000
    7       -3.166068   1.000000
    8       -2.570795   1.000000
    9       -2.517998   1.000000
   10       -0.871162   1.000000
   11       -0.353003   1.000000
   12        0.649561   1.000000
   13        1.523482   1.000000
   14        1.594185   1.000000
   15        2.072059   1.000000
   16        2.672955   1.000000
   17        4.476398   0.000000
   18        4.922185   0.000000
   19        4.963782   0.000000
   20        5.336808   0.000000
