       N       E                     dE             d eps       ncg     rms          rms(c)
DAV:   1     0.468887049410E+03    0.46889E+03   -0.17279E+04    40   0.198E+03
DAV:   2     0.405356351180E+02   -0.42835E+03   -0.40978E+03    76   0.407E+02
DAV:   3    -0.571552355271E+02   -0.97691E+02   -0.94716E+02    64   0.187E+02
DAV:   4    -0.684823662934E+02   -0.11327E+02   -0.11287E+02    48   0.619E+01
DAV:   5    -0.689905735963E+02   -0.50821E+00   -0.50786E+00    52   0.128E+01    0.251E+01
RMM:   6    -0.479153635787E+02    0.21075E+02   -0.12430E+02    41   0.724E+01    0.774E+00
RMM:   7    -0.474820052980E+02    0.43336E+00   -0.26495E+00    40   0.137E+01    0.408E+00
RMM:   8    -0.474917618610E+02   -0.97566E-02   -0.22579E+00    40   0.112E+01    0.418E+00
RMM:   9    -0.473142463712E+02    0.17752E+00   -0.11689E+00    40   0.797E+00    0.134E+00
RMM:  10    -0.472900518253E+02    0.24195E-01   -0.20905E-01    40   0.351E+00    0.737E-01
RMM:  11    -0.472851458994E+02    0.49059E-02   -0.11107E-02    43   0.809E-01    0.570E-01
RMM:  12    -0.472804977796E+02    0.46481E-02   -0.33056E-02    40   0.125E+00    0.102E-01
RMM:  13    -0.472802378446E+02    0.25994E-03   -0.12245E-03    41   0.238E-01    0.484E-02
RMM:  14    -0.472802153793E+02    0.22465E-04   -0.21750E-04    41   0.112E-01    0.210E-02
RMM:  15    -0.472802520320E+02   -0.36653E-04   -0.21322E-04    40   0.961E-02    0.417E-02
RMM:  16    -0.472802135982E+02    0.38434E-04   -0.10246E-04    33   0.717E-02    0.381E-03
RMM:  17    -0.472802147282E+02   -0.11301E-05   -0.16005E-05    25   0.241E-02
    1 T=   368. E= -.47042468E+02 F= -.47280215E+02 E0= -.47279645E+02  EK= 0.23775E+00 SP= 0.00E+00 SK= 0.99E-06
       N       E                     dE             d eps       ncg     rms          rms(c)
DAV:   1    -0.474877866194E+02   -0.20757E+00   -0.43752E+00    40   0.173E+01    0.576E-01
RMM:   2    -0.474994671122E+02   -0.11680E-01   -0.23083E-01    41   0.386E+00    0.492E-01
RMM:   3    -0.474943924616E+02    0.50747E-02   -0.15931E-02    44   0.101E+00    0.234E-01
RMM:   4    -0.474937601316E+02    0.63233E-03   -0.46750E-03    43   0.374E-01    0.124E-01
RMM:   5    -0.474934554731E+02    0.30466E-03   -0.29033E-03    40   0.391E-01    0.802E-02
RMM:   6    -0.474933455052E+02    0.10997E-03   -0.70381E-04    42   0.146E-01    0.199E-02
RMM:   7    -0.474933415973E+02    0.39079E-05   -0.44450E-05    29   0.388E-02
    2 T=   682. E= -.47052440E+02 F= -.47493342E+02 E0= -.47493143E+02  EK= 0.44081E+00 SP= 0.35E-04 SK= 0.58E-04
       N       E                     dE             d eps       ncg     rms          rms(c)
DAV:   1    -0.478204930326E+02   -0.32715E+00   -0.11958E+00    40   0.109E+01    0.266E-01
RMM:   2    -0.478288736446E+02   -0.83806E-02   -0.98433E-02    40   0.258E+00    0.193E-01
RMM:   3    -0.478280775485E+02    0.79610E-03   -0.40406E-03    41   0.566E-01    0.109E-01
RMM:   4    -0.478279356471E+02    0.14190E-03   -0.75368E-04    46   0.171E-01    0.782E-02
RMM:   5    -0.478278817393E+02    0.53908E-04   -0.25152E-04    42   0.105E-01    0.623E-02
RMM:   6    -0.478278084769E+02    0.73262E-04   -0.26946E-04    40   0.116E-01    0.285E-02
RMM:   7    -0.478277978962E+02    0.10581E-04   -0.12119E-04    38   0.667E-02    0.899E-03
RMM:   8    -0.478277971124E+02    0.78384E-06   -0.13566E-05    23   0.266E-02
    3 T=  1211. E= -.47044190E+02 F= -.47827797E+02 E0= -.47827766E+02  EK= 0.78263E+00 SP= 0.27E-03 SK= 0.71E-03
       N       E                     dE             d eps       ncg     rms          rms(c)
DAV:   1    -0.482394342319E+02   -0.41164E+00   -0.60867E-02    72   0.715E+00    0.246E-01
RMM:   2    -0.482546007007E+02   -0.15166E-01   -0.16953E-01    44   0.242E+00    0.237E-01
RMM:   3    -0.482544613839E+02    0.13932E-03   -0.19757E-02    47   0.561E-01    0.126E-01
RMM:   4    -0.482541805906E+02    0.28079E-03   -0.24205E-03    47   0.289E-01    0.649E-02
RMM:   5    -0.482541795906E+02    0.99992E-06   -0.37299E-04    45   0.790E-02    0.541E-02
RMM:   6    -0.482541526135E+02    0.26977E-04   -0.42264E-05    28   0.450E-02    0.381E-02
RMM:   7    -0.482541345485E+02    0.18065E-04   -0.93760E-05    36   0.544E-02    0.126E-02
RMM:   8    -0.482541339923E+02    0.55614E-06   -0.24996E-05    25   0.379E-02
    4 T=  1856. E= -.47049746E+02 F= -.48254134E+02 E0= -.48254131E+02  EK= 0.11995E+01 SP= 0.97E-03 SK= 0.39E-02
       N       E                     dE             d eps       ncg     rms          rms(c)
DAV:   1    -0.486556241802E+02   -0.40149E+00   -0.42598E-01    64   0.924E+00    0.129E-01
RMM:   2    -0.486605250532E+02   -0.49009E-02   -0.51694E-02    40   0.192E+00    0.585E-02
RMM:   3    -0.486604291160E+02    0.95937E-04   -0.14635E-03    44   0.303E-01    0.346E-02
RMM:   4    -0.486604304416E+02   -0.13256E-05   -0.15941E-04    41   0.771E-02    0.248E-02
RMM:   5    -0.486604285596E+02    0.18821E-05   -0.19234E-05    25   0.359E-02
    5 T=  2453. E= -.47058653E+02 F= -.48660429E+02 E0= -.48660428E+02  EK= 0.15856E+01 SP= 0.25E-02 SK= 0.14E-01
       N       E                     dE             d eps       ncg     rms          rms(c)
DAV:   1    -0.489513075622E+02   -0.29088E+00   -0.25477E-01    76   0.102E+01    0.107E-01
RMM:   2    -0.489557423967E+02   -0.44348E-02   -0.47225E-02    40   0.183E+00    0.676E-02
RMM:   3    -0.489556032246E+02    0.13917E-03   -0.10234E-03    42   0.257E-01    0.421E-02
RMM:   4    -0.489555892892E+02    0.13935E-04   -0.21144E-04    43   0.828E-02    0.220E-02
RMM:   5    -0.489555874702E+02    0.18190E-05   -0.18665E-05    26   0.340E-02
    6 T=  2834. E= -.47084283E+02 F= -.48955587E+02 E0= -.48955587E+02  EK= 0.18316E+01 SP= 0.51E-02 SK= 0.35E-01
       N       E                     dE             d eps       ncg     rms          rms(c)
DAV:   1    -0.490803449353E+02   -0.12476E+00   -0.97454E-02    64   0.989E+00    0.109E-01
RMM:   2    -0.490853869600E+02   -0.50420E-02   -0.52245E-02    40   0.202E+00    0.734E-02
RMM:   3    -0.490852275144E+02    0.15945E-03   -0.12163E-03    41   0.306E-01    0.521E-02
RMM:   4    -0.490852077913E+02    0.19723E-04   -0.31512E-04    45   0.103E-01    0.310E-02
RMM:   5    -0.490852000264E+02    0.77649E-05   -0.19589E-05    24   0.381E-02
    7 T=  2944. E= -.47104667E+02 F= -.49085200E+02 E0= -.49085200E+02  EK= 0.19029E+01 SP= 0.90E-02 SK= 0.69E-01
       N       E                     dE             d eps       ncg     rms          rms(c)
DAV:   1    -0.490265586971E+02    0.58649E-01   -0.48143E-02    72   0.937E+00    0.110E-01
RMM:   2    -0.490311515199E+02   -0.45928E-02   -0.48553E-02    40   0.194E+00    0.791E-02
RMM:   3    -0.490309242704E+02    0.22725E-03   -0.78706E-04    40   0.286E-01    0.479E-02
RMM:   4    -0.490309044785E+02    0.19792E-04   -0.19002E-04    40   0.768E-02    0.272E-02
RMM:   5    -0.490308998640E+02    0.46146E-05   -0.16562E-05    25   0.350E-02
    8 T=  2774. E= -.47110414E+02 F= -.49030900E+02 E0= -.49030900E+02  EK= 0.17926E+01 SP= 0.14E-01 SK= 0.11E+00
       N       E                     dE             d eps       ncg     rms          rms(c)
DAV:   1    -0.488043784517E+02    0.22653E+00   -0.56179E-02    72   0.895E+00    0.913E-02
RMM:   2    -0.488078998911E+02   -0.35214E-02   -0.37357E-02    40   0.165E+00    0.567E-02
RMM:   3    -0.488077716182E+02    0.12827E-03   -0.64537E-04    40   0.248E-01    0.368E-02
RMM:   4    -0.488077595906E+02    0.12028E-04   -0.65003E-05    33   0.568E-02    0.253E-02
RMM:   5    -0.488077508221E+02    0.87685E-05   -0.28181E-05    26   0.442E-02
    9 T=  2324. E= -.47122520E+02 F= -.48807751E+02 E0= -.48807751E+02  EK= 0.15020E+01 SP= 0.21E-01 SK= 0.16E+00
       N       E                     dE             d eps       ncg     rms          rms(c)
DAV:   1    -0.484646709741E+02    0.34309E+00   -0.27697E-01    40   0.100E+01    0.262E-01
RMM:   2    -0.484784306559E+02   -0.13760E-01   -0.15220E-01    40   0.284E+00    0.203E-01
RMM:   3    -0.484763862207E+02    0.20444E-02   -0.44457E-03    40   0.618E-01    0.124E-01
RMM:   4    -0.484762530947E+02    0.13313E-03   -0.17504E-03    42   0.245E-01    0.517E-02
RMM:   5    -0.484762372346E+02    0.15860E-04   -0.15267E-04    40   0.108E-01    0.356E-02
RMM:   6    -0.484762573494E+02   -0.20115E-04   -0.16236E-04    37   0.804E-02    0.397E-02
RMM:   7    -0.484762271253E+02    0.30224E-04   -0.89159E-05    35   0.673E-02    0.122E-02
RMM:   8    -0.484762251106E+02    0.20146E-05   -0.32546E-05    28   0.398E-02
   10 T=  1746. E= -.47113841E+02 F= -.48476225E+02 E0= -.48476225E+02  EK= 0.11281E+01 SP= 0.28E-01 SK= 0.21E+00
