 vasp.5.4.1 24Jun15 (build Dec 05 2016 11:22:12) gamma-only                     
  
 executed on           IFC91_ompi date 2017.09.04  16:15:01
 running on   16 total cores
 distrk:  each k-point on   16 cores,    1 groups
 distr:  one band on NCORES_PER_BAND=   4 cores,    4 groups


--------------------------------------------------------------------------------------------------------


 INCAR:
 POTCAR:   PAW_PBE O 08Apr2002                    
 POTCAR:   PAW_PBE Ti 08Apr2002                   
 POTCAR:   PAW_PBE O 08Apr2002                    
   VRHFIN =O: s2p4                                                              
   LEXCH  = PE                                                                  
   EATOM  =   432.3788 eV,   31.7789 Ry                                         
                                                                                
   TITEL  = PAW_PBE O 08Apr2002                                                 
   LULTRA =        F    use ultrasoft PP ?                                      
   IUNSCR =        0    unscreen: 0-lin 1-nonlin 2-no                           
   RPACOR =     .000    partial core radius                                     
   POMASS =   16.000; ZVAL   =    6.000    mass and valenz                      
   RCORE  =    1.520    outmost cutoff radius                                   
   RWIGS  =    1.550; RWIGS  =     .820    wigner-seitz radius (au A)           
   ENMAX  =  400.000; ENMIN  =  300.000 eV                                      
   ICORE  =        2    local potential                                         
   LCOR   =        T    correct aug charges                                     
   LPAW   =        T    paw PP                                                  
   EAUG   =  605.392                                                            
   DEXC   =     .000                                                            
   RMAX   =    2.264    core radius for proj-oper                               
   RAUG   =    1.300    factor for augmentation sphere                          
   RDEP   =    1.550    radius for radial grids                                 
   QCUT   =   -5.520; QGAM   =   11.041    optimization parameters              
                                                                                
   Description                                                                  
     l     E      TYP  RCUT    TYP  RCUT                                        
     0   .000     23  1.200                                                     
     0  -.700     23  1.200                                                     
     1   .000     23  1.520                                                     
     1   .600     23  1.520                                                     
     2   .000      7  1.500                                                     
  local pseudopotential read in
  atomic valenz-charges read in
  non local Contribution for L=           0  read in
    real space projection operators read in
  non local Contribution for L=           0  read in
    real space projection operators read in
  non local Contribution for L=           1  read in
    real space projection operators read in
  non local Contribution for L=           1  read in
    real space projection operators read in
    PAW grid and wavefunctions read in
 
   number of l-projection  operators is LMAX  =           4
   number of lm-projection operators is LMMAX =           8
 
 POTCAR:   PAW_PBE Ti 08Apr2002                   
   VRHFIN =Ti: d3 s1                                                            
   LEXCH  = PE                                                                  
   EATOM  =    94.7929 eV,    6.9671 Ry                                         
                                                                                
   TITEL  = PAW_PBE Ti 08Apr2002                                                
   LULTRA =        F    use ultrasoft PP ?                                      
   IUNSCR =        1    unscreen: 0-lin 1-nonlin 2-no                           
   RPACOR =    2.200    partial core radius                                     
   POMASS =   47.880; ZVAL   =    4.000    mass and valenz                      
   RCORE  =    2.800    outmost cutoff radius                                   
   RWIGS  =    2.500; RWIGS  =    1.323    wigner-seitz radius (au A)           
   ENMAX  =  178.330; ENMIN  =  133.747 eV                                      
   RCLOC  =    2.215    cutoff for local pot                                    
   LCOR   =        T    correct aug charges                                     
   LPAW   =        T    paw PP                                                  
   EAUG   =  328.883                                                            
   DEXC   =    -.043                                                            
   RMAX   =    3.453    core radius for proj-oper                               
   RAUG   =    1.300    factor for augmentation sphere                          
   RDEP   =    2.885    radius for radial grids                                 
   QCUT   =   -3.620; QGAM   =    7.241    optimization parameters              
                                                                                
   Description                                                                  
     l     E      TYP  RCUT    TYP  RCUT                                        
     2   .000     23  2.800                                                     
     2   .000     23  2.800                                                     
     0   .000     23  2.800                                                     
     0  1.500     23  2.800                                                     
     1  -.400     23  2.800                                                     
     3   .000      7   .000                                                     
  local pseudopotential read in
  partial core-charges read in
  atomic valenz-charges read in
  non local Contribution for L=           2  read in
    real space projection operators read in
  non local Contribution for L=           2  read in
    real space projection operators read in
  non local Contribution for L=           0  read in
    real space projection operators read in
  non local Contribution for L=           0  read in
    real space projection operators read in
  non local Contribution for L=           1  read in
    real space projection operators read in
    PAW grid and wavefunctions read in
 
   number of l-projection  operators is LMAX  =           5
   number of lm-projection operators is LMMAX =          15
 

 ----------------------------------------------------------------------------- 
|                                                                             |
|  ADVICE TO THIS USER RUNNING 'VASP/VAMP'   (HEAR YOUR MASTER'S VOICE ...):  |
|                                                                             |
|      You have a (more or less) 'small supercell' and for smaller cells      |
|      it is recommended  to use the reciprocal-space projection scheme!      |
|      The real space optimization is not  efficient for small cells and it   |
|      is also less accurate ...                                              |
|      Therefore set LREAL=.FALSE. in the  INCAR file                         |
|                                                                             |
 ----------------------------------------------------------------------------- 

 Optimization of the real space projectors (new method)

 maximal supplied QI-value         = 24.76
 optimisation between [QCUT,QGAM] = [ 12.38, 25.00] = [ 42.90,175.06] Ry 
 Optimized for a Real-space Cutoff    0.81 Angstroem

   l    n(q)    QCUT    max X(q) W(low)/X(q) W(high)/X(q)  e(spline) 
   0      6    12.378     4.192    0.99E-03    0.27E-03    0.26E-07
   0      6    12.378     8.473    0.82E-02    0.12E-02    0.17E-06
   1      5    12.378     2.474    0.13E-02    0.33E-03    0.24E-07
   1      5    12.378     3.912    0.70E-02    0.23E-02    0.86E-07
 Optimization of the real space projectors (new method)

 maximal supplied QI-value         = 13.42
 optimisation between [QCUT,QGAM] = [ 12.48, 25.09] = [ 43.60,176.28] Ry 
 Optimized for a Real-space Cutoff    1.39 Angstroem

   l    n(q)    QCUT    max X(q) W(low)/X(q) W(high)/X(q)  e(spline) 
   2      9    12.478     5.474    0.14E-02    0.24E-03    0.41E-06
   2      9    12.478    20.898    0.15E-02    0.43E-03    0.26E-05
   0     10    12.478    23.292    0.69E-03    0.24E-03    0.14E-05
   0     10    12.478    27.738    0.51E-02    0.19E-02    0.11E-04
   1     10    12.478     9.492    0.22E-02    0.12E-02    0.33E-05
 PAW_PBE O 08Apr2002                    :
 energy of atom  1       EATOM= -432.3788
 kinetic energy error for atom=    0.0168 (will be added to EATOM!!)
 PAW_PBE Ti 08Apr2002                   :
 energy of atom  2       EATOM=  -94.7929
 kinetic energy error for atom=    0.0001 (will be added to EATOM!!)
 
 
 POSCAR:  System empty                           
  positions in direct lattice
  No initial velocities read in
 exchange correlation table for  LEXCH =        8
   RHO(1)=    0.500       N(1)  =     2000
   RHO(2)=  100.500       N(2)  =     4000

 ----------------------------------------------------------------------------- 
|                                                                             |
|           W    W    AA    RRRRR   N    N  II  N    N   GGGG   !!!           |
|           W    W   A  A   R    R  NN   N  II  NN   N  G    G  !!!           |
|           W    W  A    A  R    R  N N  N  II  N N  N  G       !!!           |
|           W WW W  AAAAAA  RRRRR   N  N N  II  N  N N  G  GGG   !            |
|           WW  WW  A    A  R   R   N   NN  II  N   NN  G    G                |
|           W    W  A    A  R    R  N    N  II  N    N   GGGG   !!!           |
|                                                                             |
|      VASP found     15 degrees of freedom                                   |
|      the temperature will equal 2*E(kin)/ (degrees of freedom)              |
|      this differs from previous releases, where T was 2*E(kin)/(3 NIONS).   |
|      The new definition is more consistent                                  |
|                                                                             |
 ----------------------------------------------------------------------------- 

 


--------------------------------------------------------------------------------------------------------


 ion  position               nearest neighbor table
   1  0.305  0.305  0.000-   6 1.95   6 1.95   5 1.98
   2  0.695  0.695  0.000-   6 1.95   6 1.95   5 1.98
   3  0.195  0.805  0.500-   5 1.95   5 1.95   6 1.98
   4  0.805  0.195  0.500-   5 1.95   5 1.95   6 1.98
   5  0.000  0.000  0.000-   3 1.95   4 1.95   3 1.95   4 1.95   1 1.98   2 1.98
   6  0.500  0.500  0.500-   1 1.95   2 1.95   1 1.95   2 1.95   3 1.98   4 1.98
 

IMPORTANT INFORMATION: All symmetrisations will be switched off!
NOSYMM: (Re-)initialisation of all symmetry stuff for point group C_1.

 
 
 KPOINTS: Automatic Mesh Generation               

Automatic generation of k-mesh.
Space group operators:
 irot       det(A)        alpha          n_x          n_y          n_z        tau_x        tau_y        tau_z
    1     1.000000     0.000001     1.000000     0.000000     0.000000     0.000000     0.000000     0.000000
 
 Subroutine IBZKPT returns following result:
 ===========================================
 
 Found      1 irreducible k-points:
 
 Following reciprocal coordinates:
            Coordinates               Weight
  0.000000  0.000000  0.000000      1.000000
 
 Following cartesian coordinates:
            Coordinates               Weight
  0.000000  0.000000  0.000000      1.000000
 


--------------------------------------------------------------------------------------------------------




 Dimension of arrays:
   k-points           NKPTS =      1   k-points in BZ     NKDIM =      1   number of bands    NBANDS=     20
   number of dos      NEDOS =    301   number of ions     NIONS =      6
   non local maximal  LDIM  =      5   non local SUM 2l+1 LMDIM =     15
   total plane-waves  NPLWV =  14112
   max r-space proj   IRMAX =   2572   max aug-charges    IRDMAX=   2151
   dimension x,y,z NGX =    28 NGY =   28 NGZ =   18
   dimension x,y,z NGXF=    28 NGYF=   28 NGZF=   18
   support grid    NGXF=    28 NGYF=   28 NGZF=   18
   ions per type =               4   2
 NGX,Y,Z   is equivalent  to a cutoff of  10.13, 10.13, 10.12 a.u.
 NGXF,Y,Z  is equivalent  to a cutoff of  10.13, 10.13, 10.12 a.u.


 I would recommend the setting:
   dimension x,y,z NGX =    28 NGY =   28 NGZ =   18
 SYSTEM =  empty                                   
 POSCAR =   System empty                           

 Startparameter for this run:
   NWRITE =      2    write-flag & timer
   PREC   = low  !    normal or accurate (medium, high low for compatibility)
   ISTART =      0    job   : 0-new  1-cont  2-samecut
   ICHARG =      2    charge: 1-file 2-atom 10-const
   ISPIN  =      1    spin polarized calculation?
   LNONCOLLINEAR =      F non collinear calculations
   LSORBIT =      F    spin-orbit coupling
   INIWAV =      1    electr: 0-lowe 1-rand  2-diag
   LASPH  =      F    aspherical Exc in radial PAW
   METAGGA=      F    non-selfconsistent MetaGGA calc.

 Electronic Relaxation 1
   ENCUT  =  600.0 eV  44.10 Ry    6.64 a.u.   9.17  9.17  5.91*2*pi/ulx,y,z
   ENINI  =  600.0     initial cutoff
   ENAUG  =  605.4 eV  augmentation charge cutoff
   NELM   =     60;   NELMIN=  4; NELMDL= -5     # of ELM steps 
   EDIFF  = 0.1E-04   stopping-criterion for ELM
   LREAL  =      T    real-space projection
   NLSPLINE    = F    spline interpolate recip. space projectors
   LCOMPAT=      F    compatible to vasp.4.4
   GGA_COMPAT  = T    GGA compatible to vasp.4.4-vasp.4.6
   LMAXPAW     = -100 max onsite density
   LMAXMIX     =    2 max onsite mixed and CHGCAR
   VOSKOWN=      0    Vosko Wilk Nusair interpolation
   ROPT   =   -0.01000  -0.01000
 Ionic relaxation
   EDIFFG = -.1E-02   stopping-criterion for IOM
   NSW    =     10    number of steps for IOM
   NBLOCK =      1;   KBLOCK =     10    inner block; outer block 
   IBRION =      0    ionic relax: 0-MD 1-quasi-New 2-CG
   NFREE  =      0    steps in history (QN), initial steepest desc. (CG)
   ISIF   =      0    stress and relaxation
   IWAVPR =     12    prediction:  0-non 1-charg 2-wave 3-comb
   ISYM   =      0    0-nonsym 1-usesym 2-fastsym
   LCORR  =      T    Harris-Foulkes like correction to forces

   POTIM  = 1.5000    time-step for ionic-motion
   TEIN   =  300.0    initial temperature
   TEBEG  =  300.0;   TEEND  = 300.0 temperature during run
   SMASS  =   1.00    Nose mass-parameter (am)
   estimated Nose-frequenzy (Omega)   =  0.19E+14 period in steps =222.44 mass=   0.161E-27a.u.
   SCALEE = 1.0000    scale energy and forces
   NPACO  =    256;   APACO  = 16.0  distance and # of slots for P.C.
   PSTRESS=    0.0 pullay stress

  Mass of Ions in am
   POMASS =  16.00 47.88
  Ionic Valenz
   ZVAL   =   6.00  4.00
  Atomic Wigner-Seitz radii
   RWIGS  =  -1.00 -1.00
  virtual crystal weights 
   VCA    =   1.00  1.00
   NELECT =      32.0000    total number of electrons
   NUPDOWN=      -1.0000    fix difference up-down

 DOS related values:
   EMIN   =  10.00;   EMAX   =-10.00  energy-range for DOS
   EFERMI =   0.00
   ISMEAR =     0;   SIGMA  =   0.20  broadening in eV -4-tet -1-fermi 0-gaus

 Electronic relaxation 2 (details)
   IALGO  =     68    algorithm
   LDIAG  =      T    sub-space diagonalisation (order eigenvalues)
   LSUBROT=      F    optimize rotation matrix (better conditioning)
   TURBO    =      0    0=normal 1=particle mesh
   IRESTART =      0    0=no restart 2=restart with 2 vectors
   NREBOOT  =      0    no. of reboots
   NMIN     =      0    reboot dimension
   EREF     =   0.00    reference energy to select bands
   IMIX   =      4    mixing-type and parameters
     AMIX     =   0.40;   BMIX     =  1.00
     AMIX_MAG =   1.60;   BMIX_MAG =  1.00
     AMIN     =   0.10
     WC   =   100.;   INIMIX=   1;  MIXPRE=   1;  MAXMIX= -45

 Intra band minimization:
   WEIMIN = 0.0010     energy-eigenvalue tresh-hold
   EBREAK =  0.13E-06  absolut break condition
   DEPER  =   0.30     relativ break condition  

   TIME   =   0.40     timestep for ELM

  volume/ion in A,a.u.               =      10.40        70.21
  Fermi-wavevector in a.u.,A,eV,Ry     =   1.310215  2.475947 23.356625  1.716663
  Thomas-Fermi vector in A             =   2.440761
 
 Write flags
   LWAVE  =      F    write WAVECAR
   LCHARG =      T    write CHGCAR
   LVTOT  =      F    write LOCPOT, total local potential
   LVHAR  =      F    write LOCPOT, Hartree potential only
   LELF   =      F    write electronic localiz. function (ELF)
   LORBIT =      0    0 simple, 1 ext, 2 COOP (PROOUT)


 Dipole corrections
   LMONO  =      F    monopole corrections only (constant potential shift)
   LDIPOL =      F    correct potential (dipole corrections)
   IDIPOL =      0    1-x, 2-y, 3-z, 4-all directions 
   EPSILON=  1.0000000 bulk dielectric constant

 Exchange correlation treatment:
   GGA     =    --    GGA type
   LEXCH   =     8    internal setting for exchange type
   VOSKOWN=      0    Vosko Wilk Nusair interpolation
   LHFCALC =     F    Hartree Fock is set to
   LHFONE  =     F    Hartree Fock one center treatment
   AEXX    =    0.0000 exact exchange contribution

 Linear response parameters
   LEPSILON=     F    determine dielectric tensor
   LRPA    =     F    only Hartree local field effects (RPA)
   LNABLA  =     F    use nabla operator in PAW spheres
   LVEL    =     F    velocity operator in full k-point grid
   LINTERFAST=   F  fast interpolation
   KINTER  =     0    interpolate to denser k-point grid
   CSHIFT  =0.1000    complex shift for real part using Kramers Kronig
   OMEGAMAX=  -1.0    maximum frequency
   DEG_THRESHOLD= 0.2000000E-02 threshold for treating states as degnerate
   RTIME   =    0.100 relaxation time in fs

 Orbital magnetization related:
   ORBITALMAG=     F  switch on orbital magnetization
   LCHIMAG   =     F  perturbation theory with respect to B field
   DQ        =  0.001000  dq finite difference perturbation B field



--------------------------------------------------------------------------------------------------------


 molecular dynamics for ions
   using nose mass (canonical ensemble)
 charge density and potential will be updated during run
 non-spin polarized calculation
 RMM-DIIS sequential band-by-band and
  variant of blocked Davidson during initial phase
 perform sub-space diagonalisation
    before iterative eigenvector-optimisation
 modified Broyden-mixing scheme, WC =      100.0
 initial mixing is a Kerker type mixing with AMIX =  0.4000 and BMIX =      1.0000
 Hartree-type preconditioning will be used
 using additional bands            4
 real space projection scheme for non local part
 use partial core corrections
 calculate Harris-corrections to forces 
   (improved forces if not selfconsistent)
 use gradient corrections 
 use of overlap-Matrix (Vanderbilt PP)
 Gauss-broadening in eV      SIGMA  =   0.20


--------------------------------------------------------------------------------------------------------


  energy-cutoff  :      600.00
  volume of cell :       62.42
      direct lattice vectors                 reciprocal lattice vectors
     4.593730000  0.000000000  0.000000000     0.217688023  0.000000000  0.000000000
     0.000000000  4.593730000  0.000000000     0.000000000  0.217688023  0.000000000
     0.000000000  0.000000000  2.958120000     0.000000000  0.000000000  0.338052547

  length of vectors
     4.593730000  4.593730000  2.958120000     0.217688023  0.217688023  0.338052547


 
 k-points in units of 2pi/SCALE and weight: Automatic Mesh Generation               
   0.00000000  0.00000000  0.00000000       1.000
 
 k-points in reciprocal lattice and weights: Automatic Mesh Generation               
   0.00000000  0.00000000  0.00000000       1.000
 
 position of ions in fractional coordinates (direct lattice) 
   0.30530000  0.30530000  0.00000000
   0.69470000  0.69470000  0.00000000
   0.19470000  0.80530000  0.50000000
   0.80530000  0.19470000  0.50000000
   0.00000000  0.00000000  0.00000000
   0.50000000  0.50000000  0.50000000
 
 position of ions in cartesian coordinates  (Angst):
   1.40246577  1.40246577  0.00000000
   3.19126423  3.19126423  0.00000000
   0.89439923  3.69933077  1.47906000
   3.69933077  0.89439923  1.47906000
   0.00000000  0.00000000  0.00000000
   2.29686500  2.29686500  1.47906000
 


--------------------------------------------------------------------------------------------------------


 use parallel FFT for wavefunctions z direction half grid
 k-point  1 :   0.0000 0.0000 0.0000  plane waves:    1032

 maximum and minimum number of plane-waves per node :       261      255

 maximum number of plane-waves:      1032
 maximum index in each direction: 
   IXMAX=    9   IYMAX=    9   IZMAX=    5
   IXMIN=   -9   IYMIN=   -9   IZMIN=    0

 WARNING: aliasing errors must be expected set NGX to  38 to avoid them
 WARNING: aliasing errors must be expected set NGY to  38 to avoid them
 WARNING: aliasing errors must be expected set NGZ to  22 to avoid them
 aliasing errors are usually negligible using standard VASP settings
 and one can safely disregard these warnings

 real space projection operators:
  total allocation   :        705.92 KBytes
  max/ min on nodes  :        177.52        175.44


 parallel 3D FFT for wavefunctions:
    minimum data exchange during FFTs selected (reduces bandwidth)
 parallel 3D FFT for charge:
    minimum data exchange during FFTs selected (reduces bandwidth)


 total amount of memory used by VASP on root node    30577. kBytes
========================================================================

   base      :      30000. kBytes
   nonlr-proj:        218. kBytes
   fftplans  :        122. kBytes
   grid      :        205. kBytes
   one-center:         10. kBytes
   wavefun   :         22. kBytes
 
     INWAV:  cpu time    0.0000: real time    0.0001
 Broyden mixing: mesh for mixing (old mesh)
   NGX = 19   NGY = 19   NGZ = 11
  (NGX  = 28   NGY  = 28   NGZ  = 18)
  gives a total of   3971 points

 initial charge density was supplied:
 charge density of overlapping atoms calculated
 number of electron      32.0000000 magnetization 
 keeping initial charge density in first step


--------------------------------------------------------------------------------------------------------


 Maximum index for non-local projection operator          628
 Maximum index for augmentation-charges          185 (set IRDMAX)


--------------------------------------------------------------------------------------------------------


 First call to EWALD:  gamma=   0.447
 Maximum number of real-space cells 2x 2x 4
 Maximum number of reciprocal cells 3x 3x 2

 FEWALD executed in parallel
    FEWALD:  cpu time    0.0021: real time    0.0021


----------------------------------------- Iteration    1(   1)  ---------------------------------------


    POTLOK:  cpu time    0.3053: real time    0.3053
    SETDIJ:  cpu time    0.1167: real time    0.1167
     EDDAV:  cpu time    2.6902: real time    2.6906
       DOS:  cpu time    0.0001: real time    0.0001
    --------------------------------------------
      LOOP:  cpu time    3.1154: real time    3.1458

 eigenvalue-minimisations  :    40
 total energy-change (2. order) : 0.4688870E+03  (-0.1727950E+04)
 number of electron      32.0000000 magnetization 
 augmentation part       32.0000000 magnetization 

 Free energy of the ion-electron system (eV)
  ---------------------------------------------------
  alpha Z        PSCENC =       137.81139749
  Ewald energy   TEWEN  =     -1578.79621902
  -Hartree energ DENC   =      -438.66811127
  -exchange      EXHF   =         0.00000000
  -V(xc)+E(xc)   XCENC  =        36.51730866
  PAW double counting   =      1181.33232085    -1107.80267090
  entropy T*S    EENTRO =        -0.00000000
  eigenvalues    EBANDS =       319.45950062
  atomic energy  EATOM  =      1919.03352298
  Solvation  Ediel_sol  =         0.00000000
  ---------------------------------------------------
  free energy    TOTEN  =       468.88704941 eV

  energy without entropy =      468.88704941  energy(sigma->0) =      468.88704941


--------------------------------------------------------------------------------------------------------




----------------------------------------- Iteration    1(   2)  ---------------------------------------


     EDDAV:  cpu time    3.1817: real time    3.1826
       DOS:  cpu time    0.0001: real time    0.0001
    --------------------------------------------
      LOOP:  cpu time    3.2336: real time    3.2725

 eigenvalue-minimisations  :    76
 total energy-change (2. order) :-0.4283514E+03  (-0.4097768E+03)
 number of electron      32.0000000 magnetization 
 augmentation part       32.0000000 magnetization 

 Free energy of the ion-electron system (eV)
  ---------------------------------------------------
  alpha Z        PSCENC =       137.81139749
  Ewald energy   TEWEN  =     -1578.79621902
  -Hartree energ DENC   =      -438.66811127
  -exchange      EXHF   =         0.00000000
  -V(xc)+E(xc)   XCENC  =        36.51730866
  PAW double counting   =      1181.33232085    -1107.80267090
  entropy T*S    EENTRO =        -0.00053845
  eigenvalues    EBANDS =      -108.89137522
  atomic energy  EATOM  =      1919.03352298
  Solvation  Ediel_sol  =         0.00000000
  ---------------------------------------------------
  free energy    TOTEN  =        40.53563512 eV

  energy without entropy =       40.53617357  energy(sigma->0) =       40.53590434


--------------------------------------------------------------------------------------------------------




----------------------------------------- Iteration    1(   3)  ---------------------------------------


     EDDAV:  cpu time    2.7322: real time    2.7328
       DOS:  cpu time    0.0001: real time    0.0001
    --------------------------------------------
      LOOP:  cpu time    2.7585: real time    2.7899

 eigenvalue-minimisations  :    64
 total energy-change (2. order) :-0.9769087E+02  (-0.9471566E+02)
 number of electron      32.0000000 magnetization 
 augmentation part       32.0000000 magnetization 

 Free energy of the ion-electron system (eV)
  ---------------------------------------------------
  alpha Z        PSCENC =       137.81139749
  Ewald energy   TEWEN  =     -1578.79621902
  -Hartree energ DENC   =      -438.66811127
  -exchange      EXHF   =         0.00000000
  -V(xc)+E(xc)   XCENC  =        36.51730866
  PAW double counting   =      1181.33232085    -1107.80267090
  entropy T*S    EENTRO =        -0.00000000
  eigenvalues    EBANDS =      -206.58278432
  atomic energy  EATOM  =      1919.03352298
  Solvation  Ediel_sol  =         0.00000000
  ---------------------------------------------------
  free energy    TOTEN  =       -57.15523553 eV

  energy without entropy =      -57.15523553  energy(sigma->0) =      -57.15523553


--------------------------------------------------------------------------------------------------------




----------------------------------------- Iteration    1(   4)  ---------------------------------------


     EDDAV:  cpu time    2.3113: real time    2.3120
       DOS:  cpu time    0.0001: real time    0.0001
    --------------------------------------------
      LOOP:  cpu time    2.3376: real time    2.3720

 eigenvalue-minimisations  :    48
 total energy-change (2. order) :-0.1132713E+02  (-0.1128674E+02)
 number of electron      32.0000000 magnetization 
 augmentation part       32.0000000 magnetization 

 Free energy of the ion-electron system (eV)
  ---------------------------------------------------
  alpha Z        PSCENC =       137.81139749
  Ewald energy   TEWEN  =     -1578.79621902
  -Hartree energ DENC   =      -438.66811127
  -exchange      EXHF   =         0.00000000
  -V(xc)+E(xc)   XCENC  =        36.51730866
  PAW double counting   =      1181.33232085    -1107.80267090
  entropy T*S    EENTRO =        -0.00000000
  eigenvalues    EBANDS =      -217.90991509
  atomic energy  EATOM  =      1919.03352298
  Solvation  Ediel_sol  =         0.00000000
  ---------------------------------------------------
  free energy    TOTEN  =       -68.48236629 eV

  energy without entropy =      -68.48236629  energy(sigma->0) =      -68.48236629


--------------------------------------------------------------------------------------------------------




----------------------------------------- Iteration    1(   5)  ---------------------------------------


     EDDAV:  cpu time    3.9930: real time    3.9935
       DOS:  cpu time    0.0001: real time    0.0001
    CHARGE:  cpu time    0.5570: real time    0.5571
    MIXING:  cpu time    0.1557: real time    0.1557
    --------------------------------------------
      LOOP:  cpu time    4.7320: real time    4.7447

 eigenvalue-minimisations  :    52
 total energy-change (2. order) :-0.5082073E+00  (-0.5078613E+00)
 number of electron      31.9998236 magnetization 
 augmentation part        4.0695833 magnetization 

 Broyden mixing:
  rms(total) = 0.25053E+01    rms(broyden)= 0.25050E+01
  rms(prec ) = 0.56635E+01
  weight for this iteration     100.00

 Free energy of the ion-electron system (eV)
  ---------------------------------------------------
  alpha Z        PSCENC =       137.81139749
  Ewald energy   TEWEN  =     -1578.79621902
  -Hartree energ DENC   =      -438.66811127
  -exchange      EXHF   =         0.00000000
  -V(xc)+E(xc)   XCENC  =        36.51730866
  PAW double counting   =      1181.33232085    -1107.80267090
  entropy T*S    EENTRO =        -0.00000000
  eigenvalues    EBANDS =      -218.41812239
  atomic energy  EATOM  =      1919.03352298
  Solvation  Ediel_sol  =         0.00000000
  ---------------------------------------------------
  free energy    TOTEN  =       -68.99057360 eV

  energy without entropy =      -68.99057360  energy(sigma->0) =      -68.99057360


--------------------------------------------------------------------------------------------------------




----------------------------------------- Iteration    1(   6)  ---------------------------------------


    POTLOK:  cpu time    0.2488: real time    0.2492
    SETDIJ:  cpu time    0.1168: real time    0.1168
    EDDIAG:  cpu time    0.6369: real time    0.6370
  RMM-DIIS:  cpu time    2.9026: real time    2.9030
    ORTHCH:  cpu time    0.0260: real time    0.0261
       DOS:  cpu time    0.0002: real time    0.0002
    CHARGE:  cpu time    0.1161: real time    0.1169
    MIXING:  cpu time    0.4027: real time    0.4027
    --------------------------------------------
      LOOP:  cpu time    4.4769: real time    4.4870

 eigenvalue-minimisations  :    41
 total energy-change (2. order) : 0.2107521E+02  (-0.1242974E+02)
 number of electron      31.9998545 magnetization 
 augmentation part        4.5732133 magnetization 

 Broyden mixing:
  rms(total) = 0.77377E+00    rms(broyden)= 0.77325E+00
  rms(prec ) = 0.12540E+01
  weight for this iteration     100.00

 eigenvalues of (default mixing * dielectric matrix)
  average eigenvalue GAMMA=   0.8138
  0.8138

 Free energy of the ion-electron system (eV)
  ---------------------------------------------------
  alpha Z        PSCENC =       137.81139749
  Ewald energy   TEWEN  =     -1578.79621902
  -Hartree energ DENC   =      -532.53969276
  -exchange      EXHF   =         0.00000000
  -V(xc)+E(xc)   XCENC  =        44.88753695
  PAW double counting   =      1415.47270013    -1342.41379356
  entropy T*S    EENTRO =        -0.04455222
  eigenvalues    EBANDS =      -111.32626357
  atomic energy  EATOM  =      1919.03352298
  Solvation  Ediel_sol  =         0.00000000
  ---------------------------------------------------
  free energy    TOTEN  =       -47.91536358 eV

  energy without entropy =      -47.87081136  energy(sigma->0) =      -47.89308747


--------------------------------------------------------------------------------------------------------




----------------------------------------- Iteration    1(   7)  ---------------------------------------


    POTLOK:  cpu time    0.4036: real time    0.4036
    SETDIJ:  cpu time    0.1659: real time    0.1659
    EDDIAG:  cpu time    1.5138: real time    1.5140
  RMM-DIIS:  cpu time    1.7748: real time    1.7750
    ORTHCH:  cpu time    0.2880: real time    0.2881
       DOS:  cpu time    0.0001: real time    0.0001
    CHARGE:  cpu time    1.0447: real time    1.0448
    MIXING:  cpu time    0.3158: real time    0.3158
    --------------------------------------------
      LOOP:  cpu time    5.5594: real time    5.5730

 eigenvalue-minimisations  :    40
 total energy-change (2. order) : 0.4333583E+00  (-0.2649491E+00)
 number of electron      31.9998493 magnetization 
 augmentation part        4.3535395 magnetization 

 Broyden mixing:
  rms(total) = 0.40772E+00    rms(broyden)= 0.40766E+00
  rms(prec ) = 0.75587E+00
  weight for this iteration     100.00

 eigenvalues of (default mixing * dielectric matrix)
  average eigenvalue GAMMA=   1.3235
  0.8425  1.8044

 Free energy of the ion-electron system (eV)
  ---------------------------------------------------
  alpha Z        PSCENC =       137.81139749
  Ewald energy   TEWEN  =     -1578.79621902
  -Hartree energ DENC   =      -518.10970726
  -exchange      EXHF   =         0.00000000
  -V(xc)+E(xc)   XCENC  =        43.89206110
  PAW double counting   =      1427.59527941    -1354.91409804
  entropy T*S    EENTRO =        -0.00003143
  eigenvalues    EBANDS =      -123.99421054
  atomic energy  EATOM  =      1919.03352298
  Solvation  Ediel_sol  =         0.00000000
  ---------------------------------------------------
  free energy    TOTEN  =       -47.48200530 eV

  energy without entropy =      -47.48197387  energy(sigma->0) =      -47.48198958


--------------------------------------------------------------------------------------------------------




----------------------------------------- Iteration    1(   8)  ---------------------------------------


    POTLOK:  cpu time    0.0022: real time    0.0026
    SETDIJ:  cpu time    0.0016: real time    0.0016
    EDDIAG:  cpu time    0.0023: real time    0.0023
  RMM-DIIS:  cpu time    0.0042: real time    0.0042
    ORTHCH:  cpu time    0.0002: real time    0.0002
       DOS:  cpu time    0.0002: real time    0.0002
    CHARGE:  cpu time    0.0009: real time    0.0009
    MIXING:  cpu time    0.0003: real time    0.0003
    --------------------------------------------
      LOOP:  cpu time    0.0487: real time    0.0599

 eigenvalue-minimisations  :    40
 total energy-change (2. order) :-0.9756563E-02  (-0.2257923E+00)
 number of electron      31.9998507 magnetization 
 augmentation part        4.8152415 magnetization 

 Broyden mixing:
  rms(total) = 0.41820E+00    rms(broyden)= 0.41818E+00
  rms(prec ) = 0.95036E+00
  weight for this iteration     100.00

 eigenvalues of (default mixing * dielectric matrix)
  average eigenvalue GAMMA=   1.2239
  2.1081  1.0168  0.5467

 Free energy of the ion-electron system (eV)
  ---------------------------------------------------
  alpha Z        PSCENC =       137.81139749
  Ewald energy   TEWEN  =     -1578.79621902
  -Hartree energ DENC   =      -520.96147484
  -exchange      EXHF   =         0.00000000
  -V(xc)+E(xc)   XCENC  =        44.70981710
  PAW double counting   =      1491.35515625    -1418.89678673
  entropy T*S    EENTRO =        -0.07720336
  eigenvalues    EBANDS =      -121.66997173
  atomic energy  EATOM  =      1919.03352298
  Solvation  Ediel_sol  =         0.00000000
  ---------------------------------------------------
  free energy    TOTEN  =       -47.49176186 eV

  energy without entropy =      -47.41455850  energy(sigma->0) =      -47.45316018


--------------------------------------------------------------------------------------------------------




----------------------------------------- Iteration    1(   9)  ---------------------------------------


    POTLOK:  cpu time    0.0010: real time    0.0013
    SETDIJ:  cpu time    0.0016: real time    0.0016
    EDDIAG:  cpu time    0.0020: real time    0.0021
  RMM-DIIS:  cpu time    0.0038: real time    0.0038
    ORTHCH:  cpu time    0.0002: real time    0.0002
       DOS:  cpu time    0.0001: real time    0.0001
    CHARGE:  cpu time    0.0008: real time    0.0008
    MIXING:  cpu time    0.0003: real time    0.0003
    --------------------------------------------
      LOOP:  cpu time    0.0109: real time    0.0178

 eigenvalue-minimisations  :    40
 total energy-change (2. order) : 0.1775155E+00  (-0.1168889E+00)
 number of electron      31.9998458 magnetization 
 augmentation part        4.4677951 magnetization 

 Broyden mixing:
  rms(total) = 0.13409E+00    rms(broyden)= 0.13396E+00
  rms(prec ) = 0.28670E+00
  weight for this iteration     100.00

 eigenvalues of (default mixing * dielectric matrix)
  average eigenvalue GAMMA=   1.3507
  2.2602  1.6509  1.0197  0.4720

 Free energy of the ion-electron system (eV)
  ---------------------------------------------------
  alpha Z        PSCENC =       137.81139749
  Ewald energy   TEWEN  =     -1578.79621902
  -Hartree energ DENC   =      -514.77303006
  -exchange      EXHF   =         0.00000000
  -V(xc)+E(xc)   XCENC  =        44.14088393
  PAW double counting   =      1492.67517029    -1420.59472453
  entropy T*S    EENTRO =        -0.00008590
  eigenvalues    EBANDS =      -126.81116156
  atomic energy  EATOM  =      1919.03352298
  Solvation  Ediel_sol  =         0.00000000
  ---------------------------------------------------
  free energy    TOTEN  =       -47.31424637 eV

  energy without entropy =      -47.31416047  energy(sigma->0) =      -47.31420342


--------------------------------------------------------------------------------------------------------




----------------------------------------- Iteration    1(  10)  ---------------------------------------


    POTLOK:  cpu time    0.0012: real time    0.0012
    SETDIJ:  cpu time    0.0016: real time    0.0016
    EDDIAG:  cpu time    0.0019: real time    0.0019
  RMM-DIIS:  cpu time    0.0035: real time    0.0035
    ORTHCH:  cpu time    0.0002: real time    0.0002
       DOS:  cpu time    0.0001: real time    0.0001
    CHARGE:  cpu time    0.0008: real time    0.0007
    MIXING:  cpu time    0.0003: real time    0.0003
    --------------------------------------------
      LOOP:  cpu time    0.0100: real time    0.0201

 eigenvalue-minimisations  :    40
 total energy-change (2. order) : 0.2419455E-01  (-0.2090502E-01)
 number of electron      31.9998470 magnetization 
 augmentation part        4.5662421 magnetization 

 Broyden mixing:
  rms(total) = 0.73728E-01    rms(broyden)= 0.73722E-01
  rms(prec ) = 0.16804E+00
  weight for this iteration     100.00

 eigenvalues of (default mixing * dielectric matrix)
  average eigenvalue GAMMA=   1.3038
  2.4292  1.8673  0.9649  0.7993  0.4581

 Free energy of the ion-electron system (eV)
  ---------------------------------------------------
  alpha Z        PSCENC =       137.81139749
  Ewald energy   TEWEN  =     -1578.79621902
  -Hartree energ DENC   =      -520.29488577
  -exchange      EXHF   =         0.00000000
  -V(xc)+E(xc)   XCENC  =        44.64688341
  PAW double counting   =      1507.23981374    -1435.26441221
  entropy T*S    EENTRO =        -0.00428415
  eigenvalues    EBANDS =      -121.66186829
  atomic energy  EATOM  =      1919.03352298
  Solvation  Ediel_sol  =         0.00000000
  ---------------------------------------------------
  free energy    TOTEN  =       -47.29005183 eV

  energy without entropy =      -47.28576767  energy(sigma->0) =      -47.28790975


--------------------------------------------------------------------------------------------------------




----------------------------------------- Iteration    1(  11)  ---------------------------------------


    POTLOK:  cpu time    0.0012: real time    0.0011
    SETDIJ:  cpu time    0.0016: real time    0.0017
    EDDIAG:  cpu time    0.0028: real time    0.0036
  RMM-DIIS:  cpu time    0.0038: real time    0.0038
    ORTHCH:  cpu time    0.0003: real time    0.0003
       DOS:  cpu time    0.0001: real time    0.0001
    CHARGE:  cpu time    0.0008: real time    0.0008
    MIXING:  cpu time    0.0003: real time    0.0003
    --------------------------------------------
      LOOP:  cpu time    0.0114: real time    0.0208

 eigenvalue-minimisations  :    43
 total energy-change (2. order) : 0.4905926E-02  (-0.1110703E-02)
 number of electron      31.9998470 magnetization 
 augmentation part        4.5500718 magnetization 

 Broyden mixing:
  rms(total) = 0.56991E-01    rms(broyden)= 0.56990E-01
  rms(prec ) = 0.12589E+00
  weight for this iteration     100.00

 eigenvalues of (default mixing * dielectric matrix)
  average eigenvalue GAMMA=   1.3063
  2.6648  2.0508  1.0266  1.0266  0.4607  0.6079

 Free energy of the ion-electron system (eV)
  ---------------------------------------------------
  alpha Z        PSCENC =       137.81139749
  Ewald energy   TEWEN  =     -1578.79621902
  -Hartree energ DENC   =      -520.55387941
  -exchange      EXHF   =         0.00000000
  -V(xc)+E(xc)   XCENC  =        44.66459166
  PAW double counting   =      1508.54374279    -1436.63460044
  entropy T*S    EENTRO =        -0.00295968
  eigenvalues    EBANDS =      -121.35074226
  atomic energy  EATOM  =      1919.03352298
  Solvation  Ediel_sol  =         0.00000000
  ---------------------------------------------------
  free energy    TOTEN  =       -47.28514590 eV

  energy without entropy =      -47.28218622  energy(sigma->0) =      -47.28366606


--------------------------------------------------------------------------------------------------------




----------------------------------------- Iteration    1(  12)  ---------------------------------------


    POTLOK:  cpu time    0.0011: real time    0.0011
    SETDIJ:  cpu time    0.0015: real time    0.0015
    EDDIAG:  cpu time    0.0017: real time    0.0017
  RMM-DIIS:  cpu time    0.0032: real time    0.0032
    ORTHCH:  cpu time    0.0002: real time    0.0002
       DOS:  cpu time    0.0001: real time    0.0001
    CHARGE:  cpu time    0.0007: real time    0.0007
    MIXING:  cpu time    0.0003: real time    0.0003
    --------------------------------------------
      LOOP:  cpu time    0.0092: real time    0.0171

 eigenvalue-minimisations  :    40
 total energy-change (2. order) : 0.4648120E-02  (-0.3305621E-02)
 number of electron      31.9998466 magnetization 
 augmentation part        4.5120966 magnetization 

 Broyden mixing:
  rms(total) = 0.10237E-01    rms(broyden)= 0.10218E-01
  rms(prec ) = 0.24425E-01
  weight for this iteration     100.00

 eigenvalues of (default mixing * dielectric matrix)
  average eigenvalue GAMMA=   1.2528
  2.6393  1.5450  1.5450  0.9746  0.9746  0.4660  0.6255

 Free energy of the ion-electron system (eV)
  ---------------------------------------------------
  alpha Z        PSCENC =       137.81139749
  Ewald energy   TEWEN  =     -1578.79621902
  -Hartree energ DENC   =      -519.51659191
  -exchange      EXHF   =         0.00000000
  -V(xc)+E(xc)   XCENC  =        44.57376658
  PAW double counting   =      1506.90634693    -1435.03236688
  entropy T*S    EENTRO =        -0.00088057
  eigenvalues    EBANDS =      -122.25947339
  atomic energy  EATOM  =      1919.03352298
  Solvation  Ediel_sol  =         0.00000000
  ---------------------------------------------------
  free energy    TOTEN  =       -47.28049778 eV

  energy without entropy =      -47.27961721  energy(sigma->0) =      -47.28005749


--------------------------------------------------------------------------------------------------------




----------------------------------------- Iteration    1(  13)  ---------------------------------------


    POTLOK:  cpu time    0.0006: real time    0.0011
    SETDIJ:  cpu time    0.0014: real time    0.0014
    EDDIAG:  cpu time    0.0016: real time    0.0016
  RMM-DIIS:  cpu time    0.0028: real time    0.0028
    ORTHCH:  cpu time    0.0002: real time    0.0002
       DOS:  cpu time    0.0001: real time    0.0001
    CHARGE:  cpu time    0.0007: real time    0.0006
    MIXING:  cpu time    0.0003: real time    0.0003
    --------------------------------------------
      LOOP:  cpu time    0.0087: real time    0.0167

 eigenvalue-minimisations  :    41
 total energy-change (2. order) : 0.2599351E-03  (-0.1224518E-03)
 number of electron      31.9998466 magnetization 
 augmentation part        4.5181224 magnetization 

 Broyden mixing:
  rms(total) = 0.48387E-02    rms(broyden)= 0.48369E-02
  rms(prec ) = 0.10217E-01
  weight for this iteration     100.00

 eigenvalues of (default mixing * dielectric matrix)
  average eigenvalue GAMMA=   1.3282
  2.6459  2.0806  2.0806  0.9364  0.9364  0.4654  0.8221  0.6584

 Free energy of the ion-electron system (eV)
  ---------------------------------------------------
  alpha Z        PSCENC =       137.81139749
  Ewald energy   TEWEN  =     -1578.79621902
  -Hartree energ DENC   =      -519.51173325
  -exchange      EXHF   =         0.00000000
  -V(xc)+E(xc)   XCENC  =        44.57985507
  PAW double counting   =      1506.41876405    -1434.52167757
  entropy T*S    EENTRO =        -0.00106481
  eigenvalues    EBANDS =      -122.29308280
  atomic energy  EATOM  =      1919.03352298
  Solvation  Ediel_sol  =         0.00000000
  ---------------------------------------------------
  free energy    TOTEN  =       -47.28023784 eV

  energy without entropy =      -47.27917304  energy(sigma->0) =      -47.27970544


--------------------------------------------------------------------------------------------------------




----------------------------------------- Iteration    1(  14)  ---------------------------------------


    POTLOK:  cpu time    0.0010: real time    0.0010
    SETDIJ:  cpu time    0.0014: real time    0.0014
    EDDIAG:  cpu time    0.0015: real time    0.0015
  RMM-DIIS:  cpu time    0.0028: real time    0.0028
    ORTHCH:  cpu time    0.0002: real time    0.0002
       DOS:  cpu time    0.0001: real time    0.0001
    CHARGE:  cpu time    0.0006: real time    0.0006
    MIXING:  cpu time    0.0003: real time    0.0003
    --------------------------------------------
      LOOP:  cpu time    0.0083: real time    0.0211

 eigenvalue-minimisations  :    41
 total energy-change (2. order) : 0.2246532E-04  (-0.2175026E-04)
 number of electron      31.9998466 magnetization 
 augmentation part        4.5209986 magnetization 

 Broyden mixing:
  rms(total) = 0.20956E-02    rms(broyden)= 0.20952E-02
  rms(prec ) = 0.36121E-02
  weight for this iteration     100.00

 eigenvalues of (default mixing * dielectric matrix)
  average eigenvalue GAMMA=   1.3672
  2.9610  2.6341  1.9898  0.4649  0.9727  0.9727  0.8330  0.8330  0.6435

 Free energy of the ion-electron system (eV)
  ---------------------------------------------------
  alpha Z        PSCENC =       137.81139749
  Ewald energy   TEWEN  =     -1578.79621902
  -Hartree energ DENC   =      -519.58232722
  -exchange      EXHF   =         0.00000000
  -V(xc)+E(xc)   XCENC  =        44.58707496
  PAW double counting   =      1506.08593046    -1434.18185141
  entropy T*S    EENTRO =        -0.00116823
  eigenvalues    EBANDS =      -122.23657539
  atomic energy  EATOM  =      1919.03352298
  Solvation  Ediel_sol  =         0.00000000
  ---------------------------------------------------
  free energy    TOTEN  =       -47.28021538 eV

  energy without entropy =      -47.27904715  energy(sigma->0) =      -47.27963126


--------------------------------------------------------------------------------------------------------




----------------------------------------- Iteration    1(  15)  ---------------------------------------


    POTLOK:  cpu time    0.0009: real time    0.0009
    SETDIJ:  cpu time    0.0014: real time    0.0014
    EDDIAG:  cpu time    0.0015: real time    0.0015
  RMM-DIIS:  cpu time    0.0025: real time    0.0025
    ORTHCH:  cpu time    0.0002: real time    0.0002
       DOS:  cpu time    0.0001: real time    0.0001
    CHARGE:  cpu time    0.0005: real time    0.0006
    MIXING:  cpu time    0.0004: real time    0.0004
    --------------------------------------------
      LOOP:  cpu time    0.0079: real time    0.0147

 eigenvalue-minimisations  :    40
 total energy-change (2. order) :-0.3665279E-04  (-0.2132205E-04)
 number of electron      31.9998466 magnetization 
 augmentation part        4.5231694 magnetization 

 Broyden mixing:
  rms(total) = 0.41719E-02    rms(broyden)= 0.41717E-02
  rms(prec ) = 0.98016E-02
  weight for this iteration     100.00

 eigenvalues of (default mixing * dielectric matrix)
  average eigenvalue GAMMA=   1.3034
  2.8311  2.4553  1.8820  1.0214  1.0214  0.9907  0.9907  0.4652  0.6626  0.7133

 Free energy of the ion-electron system (eV)
  ---------------------------------------------------
  alpha Z        PSCENC =       137.81139749
  Ewald energy   TEWEN  =     -1578.79621902
  -Hartree energ DENC   =      -519.69664768
  -exchange      EXHF   =         0.00000000
  -V(xc)+E(xc)   XCENC  =        44.59647039
  PAW double counting   =      1505.74837511    -1433.84070102
  entropy T*S    EENTRO =        -0.00125869
  eigenvalues    EBANDS =      -122.13519159
  atomic energy  EATOM  =      1919.03352298
  Solvation  Ediel_sol  =         0.00000000
  ---------------------------------------------------
  free energy    TOTEN  =       -47.28025203 eV

  energy without entropy =      -47.27899334  energy(sigma->0) =      -47.27962269


--------------------------------------------------------------------------------------------------------




----------------------------------------- Iteration    1(  16)  ---------------------------------------


    POTLOK:  cpu time    0.0009: real time    0.0009
    SETDIJ:  cpu time    0.0014: real time    0.0014
    EDDIAG:  cpu time    0.0015: real time    0.0015
  RMM-DIIS:  cpu time    0.0022: real time    0.0022
    ORTHCH:  cpu time    0.0001: real time    0.0001
       DOS:  cpu time    0.0001: real time    0.0001
    CHARGE:  cpu time    0.0005: real time    0.0005
    MIXING:  cpu time    0.0004: real time    0.0004
    --------------------------------------------
      LOOP:  cpu time    0.0075: real time    0.0141

 eigenvalue-minimisations  :    33
 total energy-change (2. order) : 0.3843390E-04  (-0.1024633E-04)
 number of electron      31.9998466 magnetization 
 augmentation part        4.5205910 magnetization 

 Broyden mixing:
  rms(total) = 0.38100E-03    rms(broyden)= 0.37983E-03
  rms(prec ) = 0.77003E-03
  weight for this iteration     100.00

 eigenvalues of (default mixing * dielectric matrix)
  average eigenvalue GAMMA=   1.4107
  3.0448  2.5181  2.1675  2.1675  0.9392  0.9392  0.9493  0.9493  0.4652  0.7186
  0.6585

 Free energy of the ion-electron system (eV)
  ---------------------------------------------------
  alpha Z        PSCENC =       137.81139749
  Ewald energy   TEWEN  =     -1578.79621902
  -Hartree energ DENC   =      -519.64082675
  -exchange      EXHF   =         0.00000000
  -V(xc)+E(xc)   XCENC  =        44.59056485
  PAW double counting   =      1505.78464343    -1433.88143587
  entropy T*S    EENTRO =        -0.00115847
  eigenvalues    EBANDS =      -122.18070224
  atomic energy  EATOM  =      1919.03352298
  Solvation  Ediel_sol  =         0.00000000
  ---------------------------------------------------
  free energy    TOTEN  =       -47.28021360 eV

  energy without entropy =      -47.27905513  energy(sigma->0) =      -47.27963436


--------------------------------------------------------------------------------------------------------




----------------------------------------- Iteration    1(  17)  ---------------------------------------


    POTLOK:  cpu time    0.0008: real time    0.0008
    SETDIJ:  cpu time    0.0014: real time    0.0014
    EDDIAG:  cpu time    0.0014: real time    0.0014
  RMM-DIIS:  cpu time    0.0046: real time    0.0046
    ORTHCH:  cpu time    0.0002: real time    0.0002
       DOS:  cpu time    0.0001: real time    0.0001
    --------------------------------------------
      LOOP:  cpu time    0.0089: real time    0.0163

 eigenvalue-minimisations  :    25
 total energy-change (2. order) :-0.1130080E-05  (-0.1600463E-05)
 number of electron      31.9998466 magnetization 
 augmentation part        4.5205910 magnetization 

 Free energy of the ion-electron system (eV)
  ---------------------------------------------------
  alpha Z        PSCENC =       137.81139749
  Ewald energy   TEWEN  =     -1578.79621902
  -Hartree energ DENC   =      -519.64222926
  -exchange      EXHF   =         0.00000000
  -V(xc)+E(xc)   XCENC  =        44.59012315
  PAW double counting   =      1505.77223610    -1433.87023976
  entropy T*S    EENTRO =        -0.00113847
  eigenvalues    EBANDS =      -122.17766793
  atomic energy  EATOM  =      1919.03352298
  Solvation  Ediel_sol  =         0.00000000
  ---------------------------------------------------
  free energy    TOTEN  =       -47.28021473 eV

  energy without entropy =      -47.27907625  energy(sigma->0) =      -47.27964549


--------------------------------------------------------------------------------------------------------




 average (electrostatic) potential at core
  the test charge radii are     0.7215  1.2598
  (the norm of the test charge is              1.0000)
       1 -71.1696       2 -71.1695       3 -71.1698       4 -71.1697       5 -28.3196
       6 -28.3198
 
 
 
 E-fermi :   2.9840     XC(G=0): -11.0209     alpha+bet :-10.8860


 k-point     1 :       0.0000    0.0000    0.0000
  band No.  band energies     occupation 
      1     -15.7416      2.00000
      2     -14.4698      2.00000
      3     -13.8953      2.00000
      4     -13.8952      2.00000
      5      -3.4222      2.00000
      6      -3.0872      2.00000
      7      -2.7114      2.00000
      8      -1.5684      2.00000
      9      -1.5683      2.00000
     10      -0.0618      2.00000
     11      -0.0618      2.00000
     12       0.4800      2.00000
     13       1.9000      2.00000
     14       2.2447      2.00000
     15       2.2447      2.00000
     16       2.5240      1.99886
     17       3.4440      0.00114
     18       3.8086      0.00000
     19       3.9082      0.00000
     20       3.9198      0.00000


--------------------------------------------------------------------------------------------------------


 soft charge-density along one line, spin component           1
         0         1         2         3         4         5         6         7         8         9
 total charge-density along one line
 
 pseudopotential strength for first ion, spin component:           1
 12.359  -0.289   0.008  -0.000   0.008  -0.000  -0.000  -0.000
 -0.289   0.072  -0.001   0.000  -0.001   0.000  -0.000   0.000
  0.008  -0.001  -8.510   0.000  -0.035  -0.212  -0.000   0.006
 -0.000   0.000   0.000  -8.518   0.000  -0.000  -0.211  -0.000
  0.008  -0.001  -0.035   0.000  -8.510   0.006  -0.000  -0.212
 -0.000   0.000  -0.212  -0.000   0.006   0.285  -0.000  -0.002
 -0.000  -0.000  -0.000  -0.211  -0.000  -0.000   0.285   0.000
 -0.000   0.000   0.006  -0.000  -0.212  -0.002   0.000   0.285
 total augmentation occupancy for first ion, spin component:           1
  1.815   0.163   0.016  -0.000   0.016   0.004  -0.000   0.004
  0.163   0.017  -0.005   0.000  -0.005   0.001  -0.000   0.001
  0.016  -0.005   1.597  -0.000  -0.026   0.140   0.000   0.020
 -0.000   0.000  -0.000   1.623   0.000   0.000   0.149   0.000
  0.016  -0.005  -0.026   0.000   1.597   0.020   0.000   0.140
  0.004   0.001   0.140   0.000   0.020   0.019   0.000   0.005
 -0.000  -0.000   0.000   0.149   0.000   0.000   0.017   0.000
  0.004   0.001   0.020   0.000   0.140   0.005   0.000   0.019


------------------------ aborting loop because EDIFF is reached ----------------------------------------


    CHARGE:  cpu time    0.0508: real time    0.0508
    FORLOC:  cpu time    0.0129: real time    0.0129
    FORNL :  cpu time    0.2229: real time    0.2230
    FORCOR:  cpu time    0.3549: real time    0.3550
    FORHAR:  cpu time    0.1040: real time    0.1040
    MIXING:  cpu time    0.3639: real time    0.3639
    OFIELD:  cpu time    0.0000: real time    0.0000

 VOLUME and BASIS-vectors are now :
 -----------------------------------------------------------------------------
  energy-cutoff  :      600.00
  volume of cell :       62.42
      direct lattice vectors                 reciprocal lattice vectors
     4.593730000  0.000000000  0.000000000     0.217688023  0.000000000  0.000000000
     0.000000000  4.593730000  0.000000000     0.000000000  0.217688023  0.000000000
     0.000000000  0.000000000  2.958120000     0.000000000  0.000000000  0.338052547

  length of vectors
     4.593730000  4.593730000  2.958120000     0.217688023  0.217688023  0.338052547


 FORCES acting on ions
    electron-ion (+dipol)            ewald-force                    non-local-force                 convergence-correction
 -----------------------------------------------------------------------------------------------
   0.244E+02 0.244E+02 0.220E-03   -.206E+02 -.206E+02 -.648E-14   -.303E+00 -.303E+00 0.881E-04   0.161E-02 0.161E-02 -.196E-03
   -.244E+02 -.244E+02 -.129E-03   0.206E+02 0.206E+02 -.682E-14   0.302E+00 0.303E+00 0.265E-03   -.164E-02 -.171E-02 0.229E-03
   -.244E+02 0.244E+02 0.164E-03   0.206E+02 -.206E+02 -.260E-14   0.303E+00 -.303E+00 0.219E-03   -.296E-02 0.288E-02 -.267E-04
   0.244E+02 -.244E+02 -.482E-04   -.206E+02 0.206E+02 -.289E-14   -.303E+00 0.303E+00 0.256E-03   0.224E-02 -.247E-02 0.658E-04
   0.776E-04 0.225E-03 -.523E-04   -.149E-13 -.293E-13 0.601E-14   0.480E-04 -.270E-04 -.441E-04   -.807E-04 -.221E-03 0.170E-04
   -.225E-03 -.136E-03 -.110E-03   0.769E-14 0.795E-14 0.599E-14   0.963E-04 0.979E-04 -.426E-03   0.215E-03 0.125E-03 -.137E-04
 -----------------------------------------------------------------------------------------------
   0.124E-02 -.250E-03 0.443E-04   -.123E-15 0.703E-14 -.680E-14   -.626E-03 -.201E-03 0.358E-03   -.610E-03 0.211E-03 0.761E-04
 
 
 POSITION                                       TOTAL-FORCE (eV/Angst)
 -----------------------------------------------------------------------------------
      1.40247      1.40247      0.00000         3.511245      3.511233      0.000112
      3.19126      3.19126      0.00000        -3.511454     -3.511323      0.000365
      0.89440      3.69933      1.47906        -3.511225      3.511155      0.000357
      3.69933      0.89440      1.47906         3.511302     -3.511370      0.000274
      0.00000      0.00000      0.00000         0.000045     -0.000023     -0.000079
      2.29686      2.29686      1.47906         0.000086      0.000087     -0.000550
 -----------------------------------------------------------------------------------
    total drift:                               -0.000002     -0.000240      0.000479


--------------------------------------------------------------------------------------------------------



  FREE ENERGIE OF THE ION-ELECTRON SYSTEM (eV)
  ---------------------------------------------------
  free  energy   TOTEN  =       -47.28021473 eV

  energy  without entropy=      -47.27907625  energy(sigma->0) =      -47.27964549
 


--------------------------------------------------------------------------------------------------------


    POTLOK:  cpu time    0.3769: real time    0.3770


--------------------------------------------------------------------------------------------------------


           RANDOM_SEED =         352137794        352137831
           RANDOM_SEED =         352137794        352137831

  ENERGY OF THE ELECTRON-ION-THERMOSTAT SYSTEM (eV)
  ---------------------------------------------------
% ion-electron   TOTEN  =       -47.280215  see above
  kinetic energy EKIN   =         0.237746
  kin. lattice  EKIN_LAT=         0.000000  (temperature  367.85 K)
  nose potential ES     =         0.000000
  nose kinetic   EPS    =         0.000001
  ---------------------------------------------------
  total energy   ETOTAL =       -47.042468 eV

  maximum distance moved by ions :      0.48E-02

    WAVPRE:  cpu time    0.0009: real time    0.0011
 FEWALD executed in parallel
    FEWALD:  cpu time    0.0003: real time    0.0003

 real space projection operators:
  total allocation   :        708.99 KBytes
  max/ min on nodes  :        177.91        176.41

    ORTHCH:  cpu time    0.0007: real time    0.0007
     LOOP+:  cpu time   27.9379: real time   28.2581


----------------------------------------- Iteration    2(   1)  ---------------------------------------


    POTLOK:  cpu time    0.0012: real time    0.0012
    SETDIJ:  cpu time    0.0014: real time    0.0015
     EDDAV:  cpu time    0.0068: real time    0.0068
       DOS:  cpu time    0.0001: real time    0.0002
    CHARGE:  cpu time    0.0008: real time    0.0007
    MIXING:  cpu time    0.0001: real time    0.0001
    --------------------------------------------
      LOOP:  cpu time    0.0130: real time    0.0164

 eigenvalue-minimisations  :    40
 total energy-change (2. order) :-0.2075730E+00  (-0.4375214E+00)
 number of electron      31.9998749 magnetization 
 augmentation part        4.5444478 magnetization 

 Broyden mixing:
  rms(total) = 0.57649E-01    rms(broyden)= 0.57630E-01
  rms(prec ) = 0.13542E+00
  weight for this iteration     100.00

 Free energy of the ion-electron system (eV)
  ---------------------------------------------------
  alpha Z        PSCENC =       137.81139749
  Ewald energy   TEWEN  =     -1577.60669828
  -Hartree energ DENC   =      -520.75841877
  -exchange      EXHF   =         0.00000000
  -V(xc)+E(xc)   XCENC  =        44.61534109
  PAW double counting   =      1505.77516955    -1433.87255497
  entropy T*S    EENTRO =        -0.00063327
  eigenvalues    EBANDS =      -122.48491244
  atomic energy  EATOM  =      1919.03352298
  Solvation  Ediel_sol  =         0.00000000
  ---------------------------------------------------
  free energy    TOTEN  =       -47.48778662 eV

  energy without entropy =      -47.48715335  energy(sigma->0) =      -47.48746999


--------------------------------------------------------------------------------------------------------




----------------------------------------- Iteration    2(   2)  ---------------------------------------


    POTLOK:  cpu time    0.0011: real time    0.0011
    SETDIJ:  cpu time    0.0014: real time    0.0014
    EDDIAG:  cpu time    0.0017: real time    0.0017
  RMM-DIIS:  cpu time    0.0030: real time    0.0030
    ORTHCH:  cpu time    0.0002: real time    0.0002
       DOS:  cpu time    0.0001: real time    0.0001
    CHARGE:  cpu time    0.0007: real time    0.0007
    MIXING:  cpu time    0.0001: real time    0.0001
    --------------------------------------------
      LOOP:  cpu time    0.0087: real time    0.0146

 eigenvalue-minimisations  :    41
 total energy-change (2. order) :-0.1168049E-01  (-0.2308250E-01)
 number of electron      31.9998755 magnetization 
 augmentation part        4.5081345 magnetization 

 Broyden mixing:
  rms(total) = 0.49196E-01    rms(broyden)= 0.49188E-01
  rms(prec ) = 0.10584E+00
  weight for this iteration     100.00

 eigenvalues of (default mixing * dielectric matrix)
  average eigenvalue GAMMA=   0.5449
  0.5449

 Free energy of the ion-electron system (eV)
  ---------------------------------------------------
  alpha Z        PSCENC =       137.81139749
  Ewald energy   TEWEN  =     -1577.60669828
  -Hartree energ DENC   =      -519.79092238
  -exchange      EXHF   =         0.00000000
  -V(xc)+E(xc)   XCENC  =        44.52106470
  PAW double counting   =      1505.47940163    -1433.59834145
  entropy T*S    EENTRO =        -0.00026479
  eigenvalues    EBANDS =      -123.34862702
  atomic energy  EATOM  =      1919.03352298
  Solvation  Ediel_sol  =         0.00000000
  ---------------------------------------------------
  free energy    TOTEN  =       -47.49946711 eV

  energy without entropy =      -47.49920232  energy(sigma->0) =      -47.49933472


--------------------------------------------------------------------------------------------------------




----------------------------------------- Iteration    2(   3)  ---------------------------------------


    POTLOK:  cpu time    0.0010: real time    0.0010
    SETDIJ:  cpu time    0.0014: real time    0.0014
    EDDIAG:  cpu time    0.0016: real time    0.0016
  RMM-DIIS:  cpu time    0.0030: real time    0.0030
    ORTHCH:  cpu time    0.0002: real time    0.0002
       DOS:  cpu time    0.0001: real time    0.0001
    CHARGE:  cpu time    0.0007: real time    0.0006
    MIXING:  cpu time    0.0002: real time    0.0002
    --------------------------------------------
      LOOP:  cpu time    0.0085: real time    0.0152

 eigenvalue-minimisations  :    44
 total energy-change (2. order) : 0.5074651E-02  (-0.1593105E-02)
 number of electron      31.9998754 magnetization 
 augmentation part        4.5244693 magnetization 

 Broyden mixing:
  rms(total) = 0.23350E-01    rms(broyden)= 0.23348E-01
  rms(prec ) = 0.45637E-01
  weight for this iteration     100.00

 eigenvalues of (default mixing * dielectric matrix)
  average eigenvalue GAMMA=   0.6136
  0.6136  0.6136

 Free energy of the ion-electron system (eV)
  ---------------------------------------------------
  alpha Z        PSCENC =       137.81139749
  Ewald energy   TEWEN  =     -1577.60669828
  -Hartree energ DENC   =      -520.40959503
  -exchange      EXHF   =         0.00000000
  -V(xc)+E(xc)   XCENC  =        44.57766420
  PAW double counting   =      1506.55638611    -1434.65363056
  entropy T*S    EENTRO =        -0.00042838
  eigenvalues    EBANDS =      -122.80301099
  atomic energy  EATOM  =      1919.03352298
  Solvation  Ediel_sol  =         0.00000000
  ---------------------------------------------------
  free energy    TOTEN  =       -47.49439246 eV

  energy without entropy =      -47.49396409  energy(sigma->0) =      -47.49417827


--------------------------------------------------------------------------------------------------------




----------------------------------------- Iteration    2(   4)  ---------------------------------------


    POTLOK:  cpu time    0.0003: real time    0.0010
    SETDIJ:  cpu time    0.0014: real time    0.0014
    EDDIAG:  cpu time    0.0016: real time    0.0016
  RMM-DIIS:  cpu time    0.0028: real time    0.0028
    ORTHCH:  cpu time    0.0002: real time    0.0002
       DOS:  cpu time    0.0001: real time    0.0001
    CHARGE:  cpu time    0.0008: real time    0.0008
    MIXING:  cpu time    0.0002: real time    0.0002
    --------------------------------------------
      LOOP:  cpu time    0.0085: real time    0.0243

 eigenvalue-minimisations  :    43
 total energy-change (2. order) : 0.6323300E-03  (-0.4674982E-03)
 number of electron      31.9998754 magnetization 
 augmentation part        4.5230135 magnetization 

 Broyden mixing:
  rms(total) = 0.12351E-01    rms(broyden)= 0.12349E-01
  rms(prec ) = 0.24716E-01
  weight for this iteration     100.00

 eigenvalues of (default mixing * dielectric matrix)
  average eigenvalue GAMMA=   0.9051
  1.4757  0.6198  0.6198

 Free energy of the ion-electron system (eV)
  ---------------------------------------------------
  alpha Z        PSCENC =       137.81139749
  Ewald energy   TEWEN  =     -1577.60669828
  -Hartree energ DENC   =      -520.40454773
  -exchange      EXHF   =         0.00000000
  -V(xc)+E(xc)   XCENC  =        44.57502873
  PAW double counting   =      1506.74871312    -1434.84264770
  entropy T*S    EENTRO =        -0.00037726
  eigenvalues    EBANDS =      -122.80815147
  atomic energy  EATOM  =      1919.03352298
  Solvation  Ediel_sol  =         0.00000000
  ---------------------------------------------------
  free energy    TOTEN  =       -47.49376013 eV

  energy without entropy =      -47.49338287  energy(sigma->0) =      -47.49357150


--------------------------------------------------------------------------------------------------------




----------------------------------------- Iteration    2(   5)  ---------------------------------------


    POTLOK:  cpu time    0.0003: real time    0.0009
    SETDIJ:  cpu time    0.0014: real time    0.0014
    EDDIAG:  cpu time    0.0015: real time    0.0015
  RMM-DIIS:  cpu time    0.0026: real time    0.0026
    ORTHCH:  cpu time    0.0001: real time    0.0001
       DOS:  cpu time    0.0001: real time    0.0001
    CHARGE:  cpu time    0.0006: real time    0.0006
    MIXING:  cpu time    0.0002: real time    0.0002
    --------------------------------------------
      LOOP:  cpu time    0.0078: real time    0.0160

 eigenvalue-minimisations  :    40
 total energy-change (2. order) : 0.3046585E-03  (-0.2903267E-03)
 number of electron      31.9998754 magnetization 
 augmentation part        4.5263610 magnetization 

 Broyden mixing:
  rms(total) = 0.80190E-02    rms(broyden)= 0.80178E-02
  rms(prec ) = 0.17736E-01
  weight for this iteration     100.00

 eigenvalues of (default mixing * dielectric matrix)
  average eigenvalue GAMMA=   1.0372
  2.0204  0.8874  0.6205  0.6205

 Free energy of the ion-electron system (eV)
  ---------------------------------------------------
  alpha Z        PSCENC =       137.81139749
  Ewald energy   TEWEN  =     -1577.60669828
  -Hartree energ DENC   =      -520.57884701
  -exchange      EXHF   =         0.00000000
  -V(xc)+E(xc)   XCENC  =        44.58797575
  PAW double counting   =      1507.41317245    -1435.49101117
  entropy T*S    EENTRO =        -0.00041765
  eigenvalues    EBANDS =      -122.66255003
  atomic energy  EATOM  =      1919.03352298
  Solvation  Ediel_sol  =         0.00000000
  ---------------------------------------------------
  free energy    TOTEN  =       -47.49345547 eV

  energy without entropy =      -47.49303783  energy(sigma->0) =      -47.49324665


--------------------------------------------------------------------------------------------------------




----------------------------------------- Iteration    2(   6)  ---------------------------------------


    POTLOK:  cpu time    0.0009: real time    0.0008
    SETDIJ:  cpu time    0.0014: real time    0.0014
    EDDIAG:  cpu time    0.0014: real time    0.0014
  RMM-DIIS:  cpu time    0.0027: real time    0.0027
    ORTHCH:  cpu time    0.0001: real time    0.0001
       DOS:  cpu time    0.0001: real time    0.0001
    CHARGE:  cpu time    0.0006: real time    0.0005
    MIXING:  cpu time    0.0002: real time    0.0002
    --------------------------------------------
      LOOP:  cpu time    0.0077: real time    0.0159

 eigenvalue-minimisations  :    42
 total energy-change (2. order) : 0.1099679E-03  (-0.7038108E-04)
 number of electron      31.9998754 magnetization 
 augmentation part        4.5245664 magnetization 

 Broyden mixing:
  rms(total) = 0.19943E-02    rms(broyden)= 0.19928E-02
  rms(prec ) = 0.33639E-02
  weight for this iteration     100.00

 eigenvalues of (default mixing * dielectric matrix)
  average eigenvalue GAMMA=   0.9836
  1.9654  0.9258  0.8134  0.6066  0.6066

 Free energy of the ion-electron system (eV)
  ---------------------------------------------------
  alpha Z        PSCENC =       137.81139749
  Ewald energy   TEWEN  =     -1577.60669828
  -Hartree energ DENC   =      -520.49735642
  -exchange      EXHF   =         0.00000000
  -V(xc)+E(xc)   XCENC  =        44.58099363
  PAW double counting   =      1507.31026759    -1435.38929528
  entropy T*S    EENTRO =        -0.00040062
  eigenvalues    EBANDS =      -122.73577660
  atomic energy  EATOM  =      1919.03352298
  Solvation  Ediel_sol  =         0.00000000
  ---------------------------------------------------
  free energy    TOTEN  =       -47.49334551 eV

  energy without entropy =      -47.49294489  energy(sigma->0) =      -47.49314520


--------------------------------------------------------------------------------------------------------




----------------------------------------- Iteration    2(   7)  ---------------------------------------


    POTLOK:  cpu time    0.0009: real time    0.0009
    SETDIJ:  cpu time    0.0014: real time    0.0014
    EDDIAG:  cpu time    0.0015: real time    0.0015
  RMM-DIIS:  cpu time    0.0020: real time    0.0020
    ORTHCH:  cpu time    0.0001: real time    0.0001
       DOS:  cpu time    0.0002: real time    0.0001
    --------------------------------------------
      LOOP:  cpu time    0.0063: real time    0.0135

 eigenvalue-minimisations  :    29
 total energy-change (2. order) : 0.3907875E-05  (-0.4445008E-05)
 number of electron      31.9998754 magnetization 
 augmentation part        4.5245664 magnetization 

 Free energy of the ion-electron system (eV)
  ---------------------------------------------------
  alpha Z        PSCENC =       137.81139749
  Ewald energy   TEWEN  =     -1577.60669828
  -Hartree energ DENC   =      -520.48647115
  -exchange      EXHF   =         0.00000000
  -V(xc)+E(xc)   XCENC  =        44.58021246
  PAW double counting   =      1507.30512897    -1435.38373290
  entropy T*S    EENTRO =        -0.00039708
  eigenvalues    EBANDS =      -122.74630410
  atomic energy  EATOM  =      1919.03352298
  Solvation  Ediel_sol  =         0.00000000
  ---------------------------------------------------
  free energy    TOTEN  =       -47.49334160 eV

  energy without entropy =      -47.49294452  energy(sigma->0) =      -47.49314306


--------------------------------------------------------------------------------------------------------




 average (electrostatic) potential at core
  the test charge radii are     0.7215  1.2598
  (the norm of the test charge is              1.0000)
       1 -71.1697       2 -71.2136       3 -71.2899       4 -71.0903       5 -28.2763
       6 -28.3000
 
 
 
 E-fermi :   2.9845     XC(G=0): -11.0200     alpha+bet :-10.8860


 k-point     1 :       0.0000    0.0000    0.0000
  band No.  band energies     occupation 
      1     -15.7614      2.00000
      2     -14.5034      2.00000
      3     -13.9017      2.00000
      4     -13.8888      2.00000
      5      -3.4376      2.00000
      6      -3.1020      2.00000
      7      -2.7047      2.00000
      8      -1.6211      2.00000
      9      -1.6069      2.00000
     10      -0.0838      2.00000
     11      -0.0646      2.00000
     12       0.4771      2.00000
     13       1.8834      2.00000
     14       2.2253      2.00000
     15       2.2359      2.00000
     16       2.4808      1.99963
     17       3.4882      0.00037
     18       3.8661      0.00000
     19       3.9498      0.00000
     20       3.9863      0.00000


--------------------------------------------------------------------------------------------------------


 soft charge-density along one line, spin component           1
         0         1         2         3         4         5         6         7         8         9
 total charge-density along one line
 
 pseudopotential strength for first ion, spin component:           1
 12.358  -0.289   0.008  -0.000   0.007  -0.000  -0.000  -0.000
 -0.289   0.072  -0.001   0.000  -0.001   0.000  -0.000   0.000
  0.008  -0.001  -8.511   0.000  -0.033  -0.211  -0.000   0.005
 -0.000   0.000   0.000  -8.518   0.000  -0.000  -0.211   0.000
  0.007  -0.001  -0.033   0.000  -8.510   0.005   0.000  -0.212
 -0.000   0.000  -0.211  -0.000   0.005   0.285  -0.000  -0.002
 -0.000  -0.000  -0.000  -0.211   0.000  -0.000   0.285  -0.000
 -0.000   0.000   0.005   0.000  -0.212  -0.002  -0.000   0.285
 total augmentation occupancy for first ion, spin component:           1
  1.816   0.162   0.018  -0.001   0.016   0.005  -0.000   0.005
  0.162   0.017  -0.006   0.000  -0.005   0.001   0.000   0.001
  0.018  -0.006   1.593  -0.001  -0.021   0.140  -0.000   0.020
 -0.001   0.000  -0.001   1.625  -0.001  -0.000   0.149  -0.000
  0.016  -0.005  -0.021  -0.001   1.595   0.020  -0.000   0.139
  0.005   0.001   0.140  -0.000   0.020   0.019  -0.000   0.005
 -0.000   0.000  -0.000   0.149  -0.000  -0.000   0.017  -0.000
  0.005   0.001   0.020  -0.000   0.139   0.005  -0.000   0.019


------------------------ aborting loop because EDIFF is reached ----------------------------------------


    CHARGE:  cpu time    0.0009: real time    0.0009
    FORLOC:  cpu time    0.0001: real time    0.0001
    FORNL :  cpu time    0.0027: real time    0.0027
    FORCOR:  cpu time    0.0020: real time    0.0020
    FORHAR:  cpu time    0.0002: real time    0.0002
    MIXING:  cpu time    0.0003: real time    0.0003
    OFIELD:  cpu time    0.0000: real time    0.0000

 VOLUME and BASIS-vectors are now :
 -----------------------------------------------------------------------------
  energy-cutoff  :      600.00
  volume of cell :       62.42
      direct lattice vectors                 reciprocal lattice vectors
     4.593730000  0.000000000  0.000000000     0.217688023  0.000000000  0.000000000
     0.000000000  4.593730000  0.000000000     0.000000000  0.217688023  0.000000000
     0.000000000  0.000000000  2.958120000     0.000000000  0.000000000  0.338052547

  length of vectors
     4.593730000  4.593730000  2.958120000     0.217688023  0.217688023  0.338052547


 FORCES acting on ions
    electron-ion (+dipol)            ewald-force                    non-local-force                 convergence-correction
 -----------------------------------------------------------------------------------------------
   0.253E+02 0.256E+02 -.596E+00   -.219E+02 -.217E+02 0.589E+00   0.410E+00 0.267E+00 0.317E+00   -.589E-02 -.940E-04 -.386E-02
   -.235E+02 -.261E+02 -.151E+00   0.200E+02 0.222E+02 0.133E+00   -.322E+00 0.200E+00 0.276E-01   0.138E-01 -.112E-01 -.593E-02
   -.294E+02 0.270E+02 0.909E+00   0.257E+02 -.235E+02 -.756E+00   -.154E+00 0.557E+00 0.922E-01   -.275E-01 0.173E-01 0.401E-02
   0.256E+02 -.239E+02 0.768E+00   -.217E+02 0.204E+02 -.603E+00   -.440E+00 0.216E+00 0.226E+00   0.339E-02 0.341E-02 0.162E-02
   0.238E+00 -.113E+01 -.111E+01   -.358E+00 0.130E+01 0.103E+01   0.335E+00 -.326E+00 -.231E+00   -.180E-02 0.174E-02 0.775E-03
   0.195E+01 -.173E+01 0.390E+00   -.177E+01 0.139E+01 -.391E+00   0.851E-01 -.297E+00 -.116E+00   0.270E-02 -.329E-03 0.789E-03
 -----------------------------------------------------------------------------------------------
   0.240E+00 -.261E+00 0.211E+00   0.711E-14 0.142E-13 -.672E-14   -.863E-01 0.617E+00 0.316E+00   -.153E-01 0.109E-01 -.260E-02
 
 
 POSITION                                       TOTAL-FORCE (eV/Angst)
 -----------------------------------------------------------------------------------
      1.40616      1.41102      2.95351         3.854578      4.164758      0.306708
      3.19414      3.17891      0.00030        -3.800598     -3.762086      0.004351
      0.87896      3.71280      1.48459        -3.891610      4.071538      0.249907
      3.70124      0.89339      1.48326         3.492532     -3.317321      0.392966
      4.59367      4.58868      2.95764         0.213554     -0.156252     -0.313329
[...]
  RMM-DIIS:  cpu time    0.0025: real time    0.0025
    ORTHCH:  cpu time    0.0001: real time    0.0001
       DOS:  cpu time    0.0001: real time    0.0001
    CHARGE:  cpu time    0.0005: real time    0.0005
    MIXING:  cpu time    0.0002: real time    0.0002
    --------------------------------------------
      LOOP:  cpu time    0.0074: real time    0.0152

 eigenvalue-minimisations  :    40
 total energy-change (2. order) : 0.2044435E-02  (-0.4445676E-03)
 number of electron      32.0000771 magnetization 
 augmentation part        4.6856234 magnetization 

 Broyden mixing:
  rms(total) = 0.12428E-01    rms(broyden)= 0.12428E-01
  rms(prec ) = 0.23979E-01
  weight for this iteration     100.00

 eigenvalues of (default mixing * dielectric matrix)
  average eigenvalue GAMMA=   0.8377
  0.8377  0.8377

 Free energy of the ion-electron system (eV)
  ---------------------------------------------------
  alpha Z        PSCENC =       137.81139749
  Ewald energy   TEWEN  =     -1521.24326843
  -Hartree energ DENC   =      -563.96418913
  -exchange      EXHF   =         0.00000000
  -V(xc)+E(xc)   XCENC  =        44.59635352
  PAW double counting   =      1605.93272633    -1534.43999929
  entropy T*S    EENTRO =        -0.00000000
  eigenvalues    EBANDS =      -136.20292968
  atomic energy  EATOM  =      1919.03352298
  Solvation  Ediel_sol  =         0.00000000
  ---------------------------------------------------
  free energy    TOTEN  =       -48.47638622 eV

  energy without entropy =      -48.47638622  energy(sigma->0) =      -48.47638622


--------------------------------------------------------------------------------------------------------




----------------------------------------- Iteration   10(   4)  ---------------------------------------


    POTLOK:  cpu time    0.0009: real time    0.0008
    SETDIJ:  cpu time    0.0014: real time    0.0014
    EDDIAG:  cpu time    0.0015: real time    0.0014
  RMM-DIIS:  cpu time    0.0027: real time    0.0027
    ORTHCH:  cpu time    0.0002: real time    0.0001
       DOS:  cpu time    0.0001: real time    0.0001
    CHARGE:  cpu time    0.0005: real time    0.0005
    MIXING:  cpu time    0.0002: real time    0.0002
    --------------------------------------------
      LOOP:  cpu time    0.0076: real time    0.0151

 eigenvalue-minimisations  :    42
 total energy-change (2. order) : 0.1331260E-03  (-0.1750416E-03)
 number of electron      32.0000770 magnetization 
 augmentation part        4.6852526 magnetization 

 Broyden mixing:
  rms(total) = 0.51738E-02    rms(broyden)= 0.51721E-02
  rms(prec ) = 0.79986E-02
  weight for this iteration     100.00

 eigenvalues of (default mixing * dielectric matrix)
  average eigenvalue GAMMA=   0.7297
  0.8288  0.8288  0.5314

 Free energy of the ion-electron system (eV)
  ---------------------------------------------------
  alpha Z        PSCENC =       137.81139749
  Ewald energy   TEWEN  =     -1521.24326843
  -Hartree energ DENC   =      -564.01485366
  -exchange      EXHF   =         0.00000000
  -V(xc)+E(xc)   XCENC  =        44.59995621
  PAW double counting   =      1605.63397182    -1534.14024822
  entropy T*S    EENTRO =        -0.00000000
  eigenvalues    EBANDS =      -136.15673127
  atomic energy  EATOM  =      1919.03352298
  Solvation  Ediel_sol  =         0.00000000
  ---------------------------------------------------
  free energy    TOTEN  =       -48.47625309 eV

  energy without entropy =      -48.47625309  energy(sigma->0) =      -48.47625309


--------------------------------------------------------------------------------------------------------




----------------------------------------- Iteration   10(   5)  ---------------------------------------


    POTLOK:  cpu time    0.0009: real time    0.0009
    SETDIJ:  cpu time    0.0014: real time    0.0014
    EDDIAG:  cpu time    0.0015: real time    0.0015
  RMM-DIIS:  cpu time    0.0027: real time    0.0027
    ORTHCH:  cpu time    0.0001: real time    0.0001
       DOS:  cpu time    0.0001: real time    0.0001
    CHARGE:  cpu time    0.0005: real time    0.0005
    MIXING:  cpu time    0.0003: real time    0.0002
    --------------------------------------------
      LOOP:  cpu time    0.0077: real time    0.0261

 eigenvalue-minimisations  :    40
 total energy-change (2. order) : 0.1586003E-04  (-0.1526723E-04)
 number of electron      32.0000770 magnetization 
 augmentation part        4.6862355 magnetization 

 Broyden mixing:
  rms(total) = 0.35627E-02    rms(broyden)= 0.35624E-02
  rms(prec ) = 0.50699E-02
  weight for this iteration     100.00

 eigenvalues of (default mixing * dielectric matrix)
  average eigenvalue GAMMA=   1.0132
  1.3164  1.3164  0.7601  0.6602

 Free energy of the ion-electron system (eV)
  ---------------------------------------------------
  alpha Z        PSCENC =       137.81139749
  Ewald energy   TEWEN  =     -1521.24326843
  -Hartree energ DENC   =      -564.05108971
  -exchange      EXHF   =         0.00000000
  -V(xc)+E(xc)   XCENC  =        44.60307123
  PAW double counting   =      1605.44383294    -1533.94819730
  entropy T*S    EENTRO =        -0.00000000
  eigenvalues    EBANDS =      -136.12550644
  atomic energy  EATOM  =      1919.03352298
  Solvation  Ediel_sol  =         0.00000000
  ---------------------------------------------------
  free energy    TOTEN  =       -48.47623723 eV

  energy without entropy =      -48.47623723  energy(sigma->0) =      -48.47623723


--------------------------------------------------------------------------------------------------------




----------------------------------------- Iteration   10(   6)  ---------------------------------------


    POTLOK:  cpu time    0.0009: real time    0.0009
    SETDIJ:  cpu time    0.0014: real time    0.0014
    EDDIAG:  cpu time    0.0015: real time    0.0015
  RMM-DIIS:  cpu time    0.0025: real time    0.0025
    ORTHCH:  cpu time    0.0002: real time    0.0001
       DOS:  cpu time    0.0001: real time    0.0001
    CHARGE:  cpu time    0.0005: real time    0.0005
    MIXING:  cpu time    0.0002: real time    0.0002
    --------------------------------------------
      LOOP:  cpu time    0.0076: real time    0.0169

 eigenvalue-minimisations  :    37
 total energy-change (2. order) :-0.2011476E-04  (-0.1623573E-04)
 number of electron      32.0000770 magnetization 
 augmentation part        4.6856099 magnetization 

 Broyden mixing:
  rms(total) = 0.39702E-02    rms(broyden)= 0.39701E-02
  rms(prec ) = 0.78660E-02
  weight for this iteration     100.00

 eigenvalues of (default mixing * dielectric matrix)
  average eigenvalue GAMMA=   1.0995
  2.1694  1.0902  0.8277  0.8277  0.5825

 Free energy of the ion-electron system (eV)
  ---------------------------------------------------
  alpha Z        PSCENC =       137.81139749
  Ewald energy   TEWEN  =     -1521.24326843
  -Hartree energ DENC   =      -564.02244012
  -exchange      EXHF   =         0.00000000
  -V(xc)+E(xc)   XCENC  =        44.60025731
  PAW double counting   =      1605.03648932    -1533.53939035
  entropy T*S    EENTRO =        -0.00000000
  eigenvalues    EBANDS =      -136.15282554
  atomic energy  EATOM  =      1919.03352298
  Solvation  Ediel_sol  =         0.00000000
  ---------------------------------------------------
  free energy    TOTEN  =       -48.47625735 eV

  energy without entropy =      -48.47625735  energy(sigma->0) =      -48.47625735


--------------------------------------------------------------------------------------------------------




----------------------------------------- Iteration   10(   7)  ---------------------------------------


    POTLOK:  cpu time    0.0021: real time    0.0025
    SETDIJ:  cpu time    0.0022: real time    0.0022
    EDDIAG:  cpu time    0.0027: real time    0.0027
  RMM-DIIS:  cpu time    0.0033: real time    0.0033
    ORTHCH:  cpu time    0.0001: real time    0.0001
       DOS:  cpu time    0.0001: real time    0.0001
    CHARGE:  cpu time    0.0006: real time    0.0005
    MIXING:  cpu time    0.0003: real time    0.0003
    --------------------------------------------
      LOOP:  cpu time    0.0117: real time    0.0205

 eigenvalue-minimisations  :    35
 total energy-change (2. order) : 0.3022413E-04  (-0.8915898E-05)
 number of electron      32.0000770 magnetization 
 augmentation part        4.6860421 magnetization 

 Broyden mixing:
  rms(total) = 0.12213E-02    rms(broyden)= 0.12211E-02
  rms(prec ) = 0.25620E-02
  weight for this iteration     100.00

 eigenvalues of (default mixing * dielectric matrix)
  average eigenvalue GAMMA=   1.0573
  2.2497  0.8589  0.8589  1.0088  0.8004  0.5672

 Free energy of the ion-electron system (eV)
  ---------------------------------------------------
  alpha Z        PSCENC =       137.81139749
  Ewald energy   TEWEN  =     -1521.24326843
  -Hartree energ DENC   =      -564.04092413
  -exchange      EXHF   =         0.00000000
  -V(xc)+E(xc)   XCENC  =        44.60189821
  PAW double counting   =      1604.70938082    -1533.20964851
  entropy T*S    EENTRO =        -0.00000000
  eigenvalues    EBANDS =      -136.13858555
  atomic energy  EATOM  =      1919.03352298
  Solvation  Ediel_sol  =         0.00000000
  ---------------------------------------------------
  free energy    TOTEN  =       -48.47622713 eV

  energy without entropy =      -48.47622712  energy(sigma->0) =      -48.47622712


--------------------------------------------------------------------------------------------------------




----------------------------------------- Iteration   10(   8)  ---------------------------------------


    POTLOK:  cpu time    0.0009: real time    0.0009
    SETDIJ:  cpu time    0.0014: real time    0.0014
    EDDIAG:  cpu time    0.0015: real time    0.0015
  RMM-DIIS:  cpu time    0.0019: real time    0.0019
    ORTHCH:  cpu time    0.0001: real time    0.0001
       DOS:  cpu time    0.0001: real time    0.0001
    --------------------------------------------
      LOOP:  cpu time    0.0062: real time    0.0142

 eigenvalue-minimisations  :    28
 total energy-change (2. order) : 0.2014616E-05  (-0.3254644E-05)
 number of electron      32.0000770 magnetization 
 augmentation part        4.6860421 magnetization 

 Free energy of the ion-electron system (eV)
  ---------------------------------------------------
  alpha Z        PSCENC =       137.81139749
  Ewald energy   TEWEN  =     -1521.24326843
  -Hartree energ DENC   =      -564.04832152
  -exchange      EXHF   =         0.00000000
  -V(xc)+E(xc)   XCENC  =        44.60252855
  PAW double counting   =      1604.68822245    -1533.18847242
  entropy T*S    EENTRO =        -0.00000000
  eigenvalues    EBANDS =      -136.13183422
  atomic energy  EATOM  =      1919.03352298
  Solvation  Ediel_sol  =         0.00000000
  ---------------------------------------------------
  free energy    TOTEN  =       -48.47622511 eV

  energy without entropy =      -48.47622511  energy(sigma->0) =      -48.47622511


--------------------------------------------------------------------------------------------------------




 average (electrostatic) potential at core
  the test charge radii are     0.7215  1.2598
  (the norm of the test charge is              1.0000)
       1 -71.3751       2 -71.4387       3 -73.0397       4 -70.9862       5 -27.5962
       6 -27.2542
 
 
 
 E-fermi :   3.5116     XC(G=0): -10.9519     alpha+bet :-10.8860


 k-point     1 :       0.0000    0.0000    0.0000
  band No.  band energies     occupation 
      1     -16.7398      2.00000
      2     -15.5850      2.00000
      3     -13.7036      2.00000
      4     -13.5775      2.00000
      5      -4.2185      2.00000
      6      -3.6704      2.00000
      7      -3.0976      2.00000
      8      -2.5432      2.00000
      9      -2.4715      2.00000
     10      -0.7812      2.00000
     11      -0.2929      2.00000
     12       0.6396      2.00000
     13       1.5959      2.00000
     14       1.6204      2.00000
     15       2.1241      2.00000
     16       2.6352      2.00000
     17       4.3872      0.00000
     18       4.7597      0.00000
     19       4.8065      0.00000
     20       5.2086      0.00000


--------------------------------------------------------------------------------------------------------


 soft charge-density along one line, spin component           1
         0         1         2         3         4         5         6         7         8         9
 total charge-density along one line
 
 pseudopotential strength for first ion, spin component:           1
 12.369  -0.291   0.003  -0.000  -0.005   0.000   0.000   0.001
 -0.291   0.072  -0.001   0.000  -0.000   0.000  -0.000   0.000
  0.003  -0.001  -8.556  -0.001  -0.016  -0.202   0.000   0.002
 -0.000   0.000  -0.001  -8.574  -0.003   0.000  -0.201   0.000
 -0.005  -0.000  -0.016  -0.003  -8.544   0.002   0.000  -0.205
  0.000   0.000  -0.202   0.000   0.002   0.283  -0.000  -0.001
  0.000  -0.000   0.000  -0.201   0.000  -0.000   0.282  -0.000
  0.001   0.000   0.002   0.000  -0.205  -0.001  -0.000   0.283
 total augmentation occupancy for first ion, spin component:           1
  1.855   0.147   0.055  -0.002   0.052   0.009   0.000   0.008
  0.147   0.020  -0.018   0.001  -0.011   0.004   0.000   0.005
  0.055  -0.018   1.546  -0.000   0.030   0.141  -0.000   0.004
 -0.002   0.001  -0.000   1.658  -0.004  -0.000   0.158   0.001
  0.052  -0.011   0.030  -0.004   1.602   0.003   0.001   0.133
  0.009   0.004   0.141  -0.000   0.003   0.020  -0.000   0.005
  0.000   0.000  -0.000   0.158   0.001  -0.000   0.020  -0.000
  0.008   0.005   0.004   0.001   0.133   0.005  -0.000   0.020


------------------------ aborting loop because EDIFF is reached ----------------------------------------


    CHARGE:  cpu time    0.0007: real time    0.0057
    FORLOC:  cpu time    0.0001: real time    0.0001
    FORNL :  cpu time    0.0028: real time    0.0028
    FORCOR:  cpu time    0.0020: real time    0.0020
    FORHAR:  cpu time    0.0002: real time    0.0002
    MIXING:  cpu time    0.0003: real time    0.0003
    OFIELD:  cpu time    0.0000: real time    0.0000

 VOLUME and BASIS-vectors are now :
 -----------------------------------------------------------------------------
  energy-cutoff  :      600.00
  volume of cell :       62.42
      direct lattice vectors                 reciprocal lattice vectors
     4.593730000  0.000000000  0.000000000     0.217688023  0.000000000  0.000000000
     0.000000000  4.593730000  0.000000000     0.000000000  0.217688023  0.000000000
     0.000000000  0.000000000  2.958120000     0.000000000  0.000000000  0.338052547

  length of vectors
     4.593730000  4.593730000  2.958120000     0.217688023  0.217688023  0.338052547


 FORCES acting on ions
    electron-ion (+dipol)            ewald-force                    non-local-force                 convergence-correction
 -----------------------------------------------------------------------------------------------
   0.737E+02 0.594E+02 0.473E+00   -.759E+02 -.582E+02 -.403E+00   -.122E+01 -.149E+01 0.103E+01   -.280E-03 0.264E-02 0.673E-03
   -.497E+02 -.683E+02 0.202E+01   0.492E+02 0.666E+02 -.249E+01   0.351E+01 0.660E+01 0.906E+00   0.415E-02 -.773E-03 0.289E-02
   -.821E+02 0.650E+02 0.104E+02   0.904E+02 -.719E+02 -.139E+02   -.277E+01 0.285E+01 0.207E+01   -.554E-02 0.346E-02 0.454E-02
   0.501E+02 -.431E+02 0.609E+01   -.468E+02 0.434E+02 -.761E+01   -.670E+01 0.366E+01 0.225E+01   0.386E-03 -.137E-02 0.239E-02
   -.228E+01 -.451E+01 -.169E+02   -.191E+01 0.736E+01 0.192E+02   0.105E+00 -.275E+01 -.187E+01   0.602E-03 -.626E-03 -.533E-03
   0.169E+02 -.153E+02 -.476E+01   -.149E+02 0.127E+02 0.522E+01   0.302E+00 -.199E+01 -.174E+01   -.857E-03 0.374E-04 -.355E-03
 -----------------------------------------------------------------------------------------------
   0.661E+01 -.679E+01 -.272E+01   -.249E-13 0.000E+00 -.888E-14   -.677E+01 0.687E+01 0.264E+01   -.155E-02 0.337E-02 0.961E-02
 
 
 POSITION                                       TOTAL-FORCE (eV/Angst)
 -----------------------------------------------------------------------------------
      1.55320      1.60826      2.95145        -3.418038     -0.281965      1.100162
      3.09793      3.00491      0.01417         2.976368      4.877922      0.439214
      0.64697      3.94873      1.53241         5.498574     -3.994590     -1.445239
      3.78397      0.81977      1.53140        -3.474904      3.988832      0.740164
      4.59303      4.53835      2.94286        -4.088648      0.092379      0.374432
      2.33278      2.28735      1.45650         2.345049     -4.601391     -1.284445
 -----------------------------------------------------------------------------------
    total drift:                               -0.161599      0.081186     -0.075713


--------------------------------------------------------------------------------------------------------



  FREE ENERGIE OF THE ION-ELECTRON SYSTEM (eV)
  ---------------------------------------------------
  free  energy   TOTEN  =       -48.47622511 eV

  energy  without entropy=      -48.47622511  energy(sigma->0) =      -48.47622511
 
 d Force =-0.3338765E+00[-0.407E+00,-0.261E+00]  d Energy =-0.3315257E+00-0.235E-02
 d Force =-0.9392418E+01[-0.982E+01,-0.897E+01]  d Ewald  =-0.9391038E+01-0.138E-02


--------------------------------------------------------------------------------------------------------


    POTLOK:  cpu time    0.0023: real time    0.0023


--------------------------------------------------------------------------------------------------------


           RANDOM_SEED =         352137794        352137831

  ENERGY OF THE ELECTRON-ION-THERMOSTAT SYSTEM (eV)
  ---------------------------------------------------
% ion-electron   TOTEN  =       -48.476225  see above
  kinetic energy EKIN   =         1.128130
  kin. lattice  EKIN_LAT=         0.000000  (temperature 1745.51 K)
  nose potential ES     =         0.028440
  nose kinetic   EPS    =         0.205815
  ---------------------------------------------------
  total energy   ETOTAL =       -47.113841 eV

  maximum distance moved by ions :      0.70E-02


 mean value of Nose-termostat <S>:     1.031 mean value of <T> :  1919.150
 mean temperature <T/S>/<1/S>  :  1906.836

    WAVPRE:  cpu time    0.0017: real time    0.0017
 FEWALD executed in parallel
    FEWALD:  cpu time    0.0001: real time    0.0001

 real space projection operators:
  total allocation   :        696.77 KBytes
  max/ min on nodes  :        175.41        173.16

    ORTHCH:  cpu time    0.0006: real time    0.0006
 Prediction of Wavefunctions ALPHA= 2.134 BETA=-1.169
    POTLOK:  cpu time    0.0021: real time    0.0022
    EDDIAG:  cpu time    0.0014: real time    0.0015
     LOOP+:  cpu time    0.0864: real time    0.2180
    4ORBIT:  cpu time    0.0000: real time    0.0000

 total amount of memory used by VASP on root node    30621. kBytes
========================================================================

   base      :      30000. kBytes
   nonlr-proj:        218. kBytes
   fftplans  :        122. kBytes
   grid      :        205. kBytes
   one-center:         10. kBytes
   wavefun   :         66. kBytes
 
  
  
 General timing and accounting informations for this job:
 ========================================================
  
                  Total CPU time used (sec):       44.482
                            User time (sec):       42.836
                          System time (sec):        1.646
                         Elapsed time (sec):       45.915
  
                   Maximum memory used (kb):       43812.
                   Average memory used (kb):           0.
  
                          Minor page faults:         9702
                          Major page faults:            7
                 Voluntary context switches:         1313
