empty                                   
           1
     4.593730    0.000000    0.000000
     0.000000    4.593730    0.000000
     0.000000    0.000000    2.958120
   O    Ti
   4   2
Direct configuration=     1
   0.30530000  0.30530000  0.00000000
   0.69470000  0.69470000  0.00000000
   0.19470000  0.80530000  0.50000000
   0.80530000  0.19470000  0.50000000
   0.00000000  0.00000000  0.00000000
   0.50000000  0.50000000  0.50000000
Direct configuration=     2
   0.30610521  0.30716226  0.99844251
   0.69532498  0.69201060  0.00009996
   0.19133984  0.80823305  0.50186904
   0.80571563  0.19447942  0.50141899
   0.99998620  0.99890097  0.99983880
   0.50051985  0.50046901  0.49954951
Direct configuration=     3
   0.30804434  0.31024292  0.99700215
   0.69482328  0.68820025  0.00017781
   0.18682748  0.81235659  0.50382797
   0.80715840  0.19326839  0.50299363
   0.99998937  0.99777604  0.99960556
   0.50106209  0.50086451  0.49905724
Direct configuration=     4
   0.31107572  0.31431853  0.99584192
   0.69320539  0.68367505  0.00031253
   0.18118109  0.81761229  0.50593879
   0.80940419  0.19124347  0.50470539
   0.00003998  0.99658205  0.99925448
   0.50167552  0.50112912  0.49847363
Direct configuration=     5
   0.31497144  0.31934041  0.99488827
   0.69077389  0.67834345  0.00053206
   0.17453801  0.82395700  0.50808793
   0.81214731  0.18865541  0.50648583
   0.00014276  0.99531811  0.99882069
   0.50238668  0.50124119  0.49783959
Direct configuration=     6
   0.31964990  0.32510785  0.99440324
   0.68771859  0.67265001  0.00102369
   0.16738201  0.83096193  0.51003785
   0.81506070  0.18590752  0.50848096
   0.00023571  0.99396244  0.99825382
   0.50316906  0.50114957  0.49708595
Direct configuration=     7
   0.32464954  0.33131302  0.99438294
   0.68416791  0.66704525  0.00172402
   0.16005774  0.83837347  0.51210130
   0.81799376  0.18320832  0.51061381
   0.00031452  0.99252102  0.99753771
   0.50407346  0.50081564  0.49617254
Direct configuration=     8
   0.32963284  0.33761502  0.99479397
   0.68058863  0.66185075  0.00267582
   0.15288063  0.84592963  0.51453851
   0.82051934  0.18094733  0.51288587
   0.00033810  0.99100869  0.99664476
   0.50513510  0.50018839  0.49503639
Direct configuration=     9
   0.33425665  0.34392283  0.99586319
   0.67715225  0.65739545  0.00365886
   0.14628830  0.85320883  0.51656603
   0.82256963  0.17924800  0.51530030
   0.00021765  0.98947206  0.99573218
   0.50637656  0.49924136  0.49377881
Direct configuration=    10
   0.33811273  0.35009928  0.99774507
   0.67438232  0.65413366  0.00479184
   0.14083793  0.85959042  0.51803589
   0.82372598  0.17845361  0.51769264
   0.99984711  0.98794423  0.99483990
   0.50781907  0.49792813  0.49237298
